   12   12    1    2
  0.9504125E+01  0.5252534E-09  0.5252534E-09  0.4695283E-09  0.5000000E-15
  1.000000000000000E-004
  CAR 
 unknown system                          
     56     64     40
 
  0.0000000E+00  0.0000000E+00  0.0000000E+00  0.2915452E-02
    1      -39.900647    -39.900418   1.000000   1.000000
    2      -39.875889    -39.875659   1.000000   1.000000
    3      -39.874565    -39.874334   1.000000   1.000000
    4      -39.873652    -39.873422   1.000000   1.000000
    5      -17.045159    -17.045200   1.000000   1.000000
    6      -16.336297    -16.336351   1.000000   1.000000
    7      -14.880327    -14.880389   1.000000   1.000000
    8      -14.852299    -14.852362   1.000000   1.000000
    9      -12.715638    -12.715675   1.000000   1.000000
   10      -11.117242    -11.117274   1.000000   1.000000
   11       -6.746047     -6.746072   1.000000   1.000000
   12       -3.646318     -3.646340   1.000000   1.000000
   13       -3.360708     -3.360728   1.000000   1.000000
   14       -2.841759     -2.841786   1.000000   1.000000
   15       -2.759583     -2.759606   1.000000   1.000000
   16       -1.576894     -1.576941   1.000000   1.000000
   17       -0.739966     -0.739989   1.000000   1.000000
   18       -0.687602     -0.687615   1.000000   1.000000
   19        0.173740      0.173714   1.000000   1.000000
   20        0.339671      0.339655   1.000000   1.000000
   21        0.561495      0.561470   1.000000   1.000000
   22        1.346443      1.346398   1.000000   1.000000
   23        1.354837      1.354790   1.000000   1.000000
   24        1.429770      1.429728   1.000000   1.000000
   25        1.616719      1.616685   1.000000   1.000000
   26        2.295900      2.295883   1.000000   1.000000
   27        2.305691      2.305663   1.000000   1.000000
   28        2.968486      2.968478   1.000000   1.000000
   29        8.962322      8.962340   0.000003   0.000002
   30        9.986255      9.986253   0.000000   0.000000
   31       10.386691     10.386668   0.000000   0.000000
   32       12.062548     12.064048   0.000000   0.000000
   33       12.120511     12.120465   0.000000   0.000000
   34       12.739925     12.740037   0.000000   0.000000
   35       12.929381     12.929232   0.000000   0.000000
   36       13.841417     13.832570   0.000000   0.000000
   37       13.974653     13.966324   0.000000   0.000000
   38       14.234382     14.228305   0.000000   0.000000
   39       14.446759     14.445734   0.000000   0.000000
   40       15.296493     14.717758   0.000000   0.000000
 
  0.1428571E+00 -0.1861934E-17  0.0000000E+00  0.1166181E-01
    1      -39.899690    -39.899460   1.000000   1.000000
    2      -39.878456    -39.878225   1.000000   1.000000
    3      -39.874509    -39.874278   1.000000   1.000000
    4      -39.872052    -39.871822   1.000000   1.000000
    5      -17.024026    -17.024067   1.000000   1.000000
    6      -16.356861    -16.356914   1.000000   1.000000
    7      -14.885179    -14.885241   1.000000   1.000000
    8      -14.856953    -14.857016   1.000000   1.000000
    9      -12.718646    -12.718684   1.000000   1.000000
   10      -11.115190    -11.115222   1.000000   1.000000
   11       -6.748849     -6.748874   1.000000   1.000000
   12       -3.652563     -3.652584   1.000000   1.000000
   13       -3.324849     -3.324872   1.000000   1.000000
   14       -2.796551     -2.796576   1.000000   1.000000
   15       -2.742962     -2.742989   1.000000   1.000000
   16       -1.598734     -1.598780   1.000000   1.000000
   17       -0.839377     -0.839395   1.000000   1.000000
   18       -0.458169     -0.458190   1.000000   1.000000
   19        0.208772      0.208746   1.000000   1.000000
   20        0.381477      0.381457   1.000000   1.000000
   21        0.553297      0.553274   1.000000   1.000000
   22        1.149313      1.149272   1.000000   1.000000
   23        1.278639      1.278603   1.000000   1.000000
   24        1.426013      1.425968   1.000000   1.000000
   25        1.575207      1.575172   1.000000   1.000000
   26        2.253123      2.253096   1.000000   1.000000
   27        2.347219      2.347197   1.000000   1.000000
   28        2.963019      2.963011   1.000000   1.000000
   29        9.191012      9.191026  -0.000000  -0.000000
   30       10.010843     10.010841   0.000000   0.000000
   31       10.493528     10.493516   0.000000   0.000000
   32       11.894118     11.894091   0.000000   0.000000
   33       12.072219     12.072257   0.000000   0.000000
   34       12.517693     12.517661   0.000000   0.000000
   35       12.966722     12.966909   0.000000   0.000000
   36       13.458821     13.458785   0.000000   0.000000
   37       13.803482     13.802842   0.000000   0.000000
   38       14.024542     14.020536   0.000000   0.000000
   39       14.156398     14.156303   0.000000   0.000000
   40       15.032341     15.149911   0.000000   0.000000
 
  0.2857143E+00 -0.2948493E-16  0.0000000E+00  0.1166181E-01
    1      -39.897072    -39.896842   1.000000   1.000000
    2      -39.882777    -39.882547   1.000000   1.000000
    3      -39.874126    -39.873895   1.000000   1.000000
    4      -39.870778    -39.870547   1.000000   1.000000
    5      -16.970721    -16.970763   1.000000   1.000000
    6      -16.409455    -16.409507   1.000000   1.000000
    7      -14.896171    -14.896232   1.000000   1.000000
    8      -14.867160    -14.867223   1.000000   1.000000
    9      -12.724816    -12.724854   1.000000   1.000000
   10      -11.111211    -11.111243   1.000000   1.000000
   11       -6.754038     -6.754062   1.000000   1.000000
   12       -3.676251     -3.676268   1.000000   1.000000
   13       -3.223856     -3.223882   1.000000   1.000000
   14       -2.863303     -2.863332   1.000000   1.000000
   15       -2.520486     -2.520516   1.000000   1.000000
   16       -1.664902     -1.664944   1.000000   1.000000
   17       -0.751786     -0.751806   1.000000   1.000000
   18       -0.202809     -0.202834   1.000000   1.000000
   19        0.200159      0.200135   1.000000   1.000000
   20        0.453189      0.453164   1.000000   1.000000
   21        0.579278      0.579258   1.000000   1.000000
   22        0.800858      0.800828   1.000000   1.000000
   23        1.104514      1.104482   1.000000   1.000000
   24        1.354238      1.354206   1.000000   1.000000
   25        1.489093      1.489051   1.000000   1.000000
   26        2.126588      2.126566   1.000000   1.000000
   27        2.470238      2.470206   1.000000   1.000000
   28        2.946570      2.946560   1.000000   1.000000
   29        9.710501      9.710500   0.000000   0.000000
   30       10.065764     10.065757   0.000000   0.000000
   31       10.769449     10.769413   0.000000   0.000000
   32       11.611325     11.611264   0.000000   0.000000
   33       11.813440     11.813460   0.000000   0.000000
   34       12.113930     12.113878   0.000000   0.000000
   35       12.696392     12.696143   0.000000   0.000000
   36       13.109846     13.109853   0.000000   0.000000
   37       13.323455     13.323357   0.000000   0.000000
   38       14.075430     14.074590   0.000000   0.000000
   39       14.174997     14.175093   0.000000   0.000000
   40       14.938853     14.936623   0.000000   0.000000
 
  0.4285714E+00 -0.6844643E-16  0.0000000E+00  0.1166181E-01
    1      -39.893455    -39.893225   1.000000   1.000000
    2      -39.887295    -39.887065   1.000000   1.000000
    3      -39.873767    -39.873537   1.000000   1.000000
    4      -39.870262    -39.870032   1.000000   1.000000
    5      -16.918646    -16.918689   1.000000   1.000000
    6      -16.461212    -16.461262   1.000000   1.000000
    7      -14.905077    -14.905138   1.000000   1.000000
    8      -14.875099    -14.875162   1.000000   1.000000
    9      -12.729123    -12.729161   1.000000   1.000000
   10      -11.108646    -11.108679   1.000000   1.000000
   11       -6.756940     -6.756963   1.000000   1.000000
   12       -3.704031     -3.704047   1.000000   1.000000
   13       -3.108077     -3.108101   1.000000   1.000000
   14       -2.944435     -2.944470   1.000000   1.000000
   15       -2.279483     -2.279517   1.000000   1.000000
   16       -1.750684     -1.750724   1.000000   1.000000
   17       -0.551906     -0.551932   1.000000   1.000000
   18       -0.098341     -0.098375   1.000000   1.000000
   19        0.165437      0.165423   1.000000   1.000000
   20        0.360082      0.360063   1.000000   1.000000
   21        0.432479      0.432458   1.000000   1.000000
   22        0.786714      0.786683   1.000000   1.000000
   23        1.086927      1.086902   1.000000   1.000000
   24        1.244312      1.244284   1.000000   1.000000
   25        1.415535      1.415489   1.000000   1.000000
   26        2.006252      2.006235   1.000000   1.000000
   27        2.576274      2.576234   1.000000   1.000000
   28        2.927145      2.927135   1.000000   1.000000
   29        9.821978      9.821945   0.000000   0.000000
   30       10.566726     10.566720   0.000000   0.000000
   31       10.972001     10.971970   0.000000   0.000000
   32       11.374301     11.374282   0.000000   0.000000
   33       11.685183     11.685005   0.000000   0.000000
   34       11.799841     11.799841   0.000000   0.000000
   35       12.230710     12.230580   0.000000   0.000000
   36       12.763229     12.763108   0.000000   0.000000
   37       13.071177     13.071209   0.000000   0.000000
   38       14.300043     14.300188   0.000000   0.000000
   39       14.539836     14.541313   0.000000   0.000000
   40       15.139732     15.129242   0.000000   0.000000
 
  0.1428571E+00  0.1428571E+00  0.0000000E+00  0.5830904E-02
    1      -39.897814    -39.897584   1.000000   1.000000
    2      -39.881829    -39.881599   1.000000   1.000000
    3      -39.874362    -39.874132   1.000000   1.000000
    4      -39.870688    -39.870458   1.000000   1.000000
    5      -16.983394    -16.983435   1.000000   1.000000
    6      -16.401427    -16.401479   1.000000   1.000000
    7      -14.894513    -14.894575   1.000000   1.000000
    8      -14.858814    -14.858877   1.000000   1.000000
    9      -12.719122    -12.719159   1.000000   1.000000
   10      -11.112661    -11.112694   1.000000   1.000000
   11       -6.747363     -6.747387   1.000000   1.000000
   12       -3.685044     -3.685063   1.000000   1.000000
   13       -3.254381     -3.254405   1.000000   1.000000
   14       -2.816327     -2.816356   1.000000   1.000000
   15       -2.655398     -2.655427   1.000000   1.000000
   16       -1.652839     -1.652882   1.000000   1.000000
   17       -0.799681     -0.799701   1.000000   1.000000
   18       -0.152223     -0.152251   1.000000   1.000000
   19        0.309505      0.309484   1.000000   1.000000
   20        0.334088      0.334058   1.000000   1.000000
   21        0.570440      0.570422   1.000000   1.000000
   22        0.951390      0.951353   1.000000   1.000000
   23        1.006771      1.006747   1.000000   1.000000
   24        1.451953      1.451924   1.000000   1.000000
   25        1.474344      1.474297   1.000000   1.000000
   26        2.147926      2.147904   1.000000   1.000000
   27        2.461140      2.461110   1.000000   1.000000
   28        2.967824      2.967813   1.000000   1.000000
   29        9.554778      9.554782   0.000000   0.000000
   30       10.008339     10.008309   0.000000   0.000000
   31       10.643572     10.643546   0.000000   0.000000
   32       11.744102     11.744942   0.000000   0.000000
   33       11.860690     11.860674   0.000000   0.000000
   34       12.475185     12.475107   0.000000   0.000000
   35       12.567750     12.567908   0.000000   0.000000
   36       13.276096     13.276788   0.000000   0.000000
   37       13.397194     13.396696   0.000000   0.000000
   38       13.675545     13.675241   0.000000   0.000000
   39       14.050464     14.050384   0.000000   0.000000
   40       15.519760     15.219173   0.000000   0.000000
 
  0.2857143E+00  0.1428571E+00  0.0000000E+00  0.1166181E-01
    1      -39.894509    -39.894279   1.000000   1.000000
    2      -39.886012    -39.885782   1.000000   1.000000
    3      -39.874243    -39.874012   1.000000   1.000000
    4      -39.869983    -39.869753   1.000000   1.000000
    5      -16.929193    -16.929237   1.000000   1.000000
    6      -16.452705    -16.452756   1.000000   1.000000
    7      -14.926174    -14.926234   1.000000   1.000000
    8      -14.848458    -14.848521   1.000000   1.000000
    9      -12.725647    -12.725685   1.000000   1.000000
   10      -11.109447    -11.109480   1.000000   1.000000
   11       -6.752799     -6.752822   1.000000   1.000000
   12       -3.706889     -3.706905   1.000000   1.000000
   13       -3.158559     -3.158584   1.000000   1.000000
   14       -2.859962     -2.859997   1.000000   1.000000
   15       -2.434098     -2.434129   1.000000   1.000000
   16       -1.714257     -1.714297   1.000000   1.000000
   17       -0.608977     -0.609001   1.000000   1.000000
   18        0.000463      0.000424   1.000000   1.000000
   19        0.161173      0.161155   1.000000   1.000000
   20        0.278795      0.278780   1.000000   1.000000
   21        0.666084      0.666055   1.000000   1.000000
   22        0.703977      0.703953   1.000000   1.000000
   23        0.949830      0.949807   1.000000   1.000000
   24        1.312368      1.312340   1.000000   1.000000
   25        1.466888      1.466841   1.000000   1.000000
   26        2.018092      2.018076   1.000000   1.000000
   27        2.568253      2.568214   1.000000   1.000000
   28        2.953387      2.953375   1.000000   1.000000
   29        9.902298      9.902279   0.000000   0.000000
   30       10.139974     10.139966   0.000000   0.000000
   31       10.838993     10.838975   0.000000   0.000000
   32       11.450263     11.450309   0.000000   0.000000
   33       11.895597     11.895867   0.000000   0.000000
   34       11.992353     11.992310   0.000000   0.000000
   35       12.304532     12.304380   0.000000   0.000000
   36       12.804708     12.805578   0.000000   0.000000
   37       13.244079     13.243954   0.000000   0.000000
   38       13.780721     13.779941   0.000000   0.000000
   39       14.211323     14.211396   0.000000   0.000000
   40       15.510232     15.391736   0.000000   0.000000
 
  0.4285714E+00  0.1428571E+00  0.0000000E+00  0.1166181E-01
    1      -39.891873    -39.891642   1.000000   1.000000
    2      -39.888771    -39.888541   1.000000   1.000000
    3      -39.874186    -39.873955   1.000000   1.000000
    4      -39.869947    -39.869717   1.000000   1.000000
    5      -16.907427    -16.907471   1.000000   1.000000
    6      -16.466939    -16.466989   1.000000   1.000000
    7      -14.948088    -14.948147   1.000000   1.000000
    8      -14.841632    -14.841696   1.000000   1.000000
    9      -12.733601    -12.733639   1.000000   1.000000
   10      -11.107559    -11.107592   1.000000   1.000000
   11       -6.762076     -6.762099   1.000000   1.000000
   12       -3.704423     -3.704438   1.000000   1.000000
   13       -3.059290     -3.059313   1.000000   1.000000
   14       -2.928518     -2.928559   1.000000   1.000000
   15       -2.232981     -2.233016   1.000000   1.000000
   16       -1.759090     -1.759129   1.000000   1.000000
   17       -0.483158     -0.483185   1.000000   1.000000
   18       -0.188282     -0.188308   1.000000   1.000000
   19        0.075402      0.075386   1.000000   1.000000
   20        0.262645      0.262628   1.000000   1.000000
   21        0.573687      0.573655   1.000000   1.000000
   22        0.763733      0.763710   1.000000   1.000000
   23        1.086031      1.086008   1.000000   1.000000
   24        1.204729      1.204698   1.000000   1.000000
   25        1.456334      1.456288   1.000000   1.000000
   26        1.984247      1.984232   1.000000   1.000000
   27        2.579990      2.579949   1.000000   1.000000
   28        2.936688      2.936676   1.000000   1.000000
   29        9.882467      9.882456   0.000000   0.000000
   30       10.433428     10.433409   0.000000   0.000000
   31       11.027407     11.027420   0.000000   0.000000
   32       11.243819     11.243797   0.000000   0.000000
   33       11.566330     11.566256   0.000000   0.000000
   34       12.050458     12.050423   0.000000   0.000000
   35       12.322861     12.322891   0.000000   0.000000
   36       12.675710     12.675683   0.000000   0.000000
   37       13.074483     13.074824   0.000000   0.000000
   38       14.075262     14.077976   0.000000   0.000000
   39       14.494157     14.493996   0.000000   0.000000
   40       15.391095     15.378686   0.000000   0.000000
 
 -0.4285714E+00  0.1428571E+00  0.0000000E+00  0.1166181E-01
    1      -39.895185    -39.894955   1.000000   1.000000
    2      -39.884718    -39.884487   1.000000   1.000000
    3      -39.874518    -39.874288   1.000000   1.000000
    4      -39.870421    -39.870190   1.000000   1.000000
    5      -16.941972    -16.942015   1.000000   1.000000
    6      -16.425675    -16.425727   1.000000   1.000000
    7      -14.951030    -14.951089   1.000000   1.000000
    8      -14.836581    -14.836644   1.000000   1.000000
    9      -12.737624    -12.737662   1.000000   1.000000
   10      -11.108042    -11.108074   1.000000   1.000000
   11       -6.768490     -6.768513   1.000000   1.000000
   12       -3.672124     -3.672140   1.000000   1.000000
   13       -3.102798     -3.102829   1.000000   1.000000
   14       -2.907878     -2.907908   1.000000   1.000000
   15       -2.282218     -2.282252   1.000000   1.000000
   16       -1.715438     -1.715477   1.000000   1.000000
   17       -0.624949     -0.624972   1.000000   1.000000
   18       -0.297164     -0.297183   1.000000   1.000000
   19        0.073968      0.073948   1.000000   1.000000
   20        0.350979      0.350953   1.000000   1.000000
   21        0.587186      0.587156   1.000000   1.000000
   22        0.771496      0.771473   1.000000   1.000000
   23        1.140345      1.140314   1.000000   1.000000
   24        1.268578      1.268550   1.000000   1.000000
   25        1.494460      1.494415   1.000000   1.000000
   26        2.072786      2.072765   1.000000   1.000000
   27        2.485435      2.485400   1.000000   1.000000
   28        2.929279      2.929269   1.000000   1.000000
   29        9.919778      9.919757   0.000000   0.000000
   30       10.306627     10.306624   0.000000   0.000000
   31       10.944318     10.944295   0.000000   0.000000
   32       11.104773     11.104880   0.000000   0.000000
   33       11.744969     11.744790   0.000000   0.000000
   34       11.964237     11.964113   0.000000   0.000000
   35       12.793235     12.793022   0.000000   0.000000
   36       12.931505     12.931683   0.000000   0.000000
   37       13.167858     13.167414   0.000000   0.000000
   38       14.232071     14.230275   0.000000   0.000000
   39       14.547657     14.557748   0.000000   0.000000
   40       15.041003     14.934863   0.000000   0.000000
 
 -0.2857143E+00  0.1428571E+00  0.0000000E+00  0.1166181E-01
    1      -39.898224    -39.897994   1.000000   1.000000
    2      -39.880141    -39.879911   1.000000   1.000000
    3      -39.875202    -39.874972   1.000000   1.000000
    4      -39.871244    -39.871013   1.000000   1.000000
    5      -16.995420    -16.995462   1.000000   1.000000
    6      -16.371458    -16.371511   1.000000   1.000000
    7      -14.935438    -14.935499   1.000000   1.000000
    8      -14.834255    -14.834319   1.000000   1.000000
    9      -12.734120    -12.734157   1.000000   1.000000
   10      -11.111054    -11.111087   1.000000   1.000000
   11       -6.765954     -6.765978   1.000000   1.000000
   12       -3.636005     -3.636022   1.000000   1.000000
   13       -3.246683     -3.246713   1.000000   1.000000
   14       -2.820067     -2.820092   1.000000   1.000000
   15       -2.506601     -2.506632   1.000000   1.000000
   16       -1.620957     -1.621000   1.000000   1.000000
   17       -0.761636     -0.761655   1.000000   1.000000
   18       -0.486953     -0.486970   1.000000   1.000000
   19        0.093196      0.093174   1.000000   1.000000
   20        0.460412      0.460389   1.000000   1.000000
   21        0.607472      0.607440   1.000000   1.000000
   22        0.851534      0.851506   1.000000   1.000000
   23        1.254427      1.254391   1.000000   1.000000
   24        1.403138      1.403098   1.000000   1.000000
   25        1.554126      1.554086   1.000000   1.000000
   26        2.189117      2.189091   1.000000   1.000000
   27        2.362993      2.362967   1.000000   1.000000
   28        2.930815      2.930808   1.000000   1.000000
   29        9.596705      9.596714   0.000000   0.000000
   30       10.130671     10.130674   0.000000   0.000000
   31       10.696540     10.696540   0.000000   0.000000
   32       11.410465     11.410450   0.000000   0.000000
   33       12.061990     12.062227   0.000000   0.000000
   34       12.213275     12.213252   0.000000   0.000000
   35       12.778858     12.779041   0.000000   0.000000
   36       13.425374     13.425068   0.000000   0.000000
   37       13.509507     13.509164   0.000000   0.000000
   38       14.190086     14.190194   0.000000   0.000000
   39       14.507685     14.508989   0.000000   0.000000
   40       15.182271     15.113304   0.000000   0.000000
 
 -0.1428571E+00  0.1428571E+00  0.0000000E+00  0.5830904E-02
    1      -39.899832    -39.899603   1.000000   1.000000
    2      -39.876641    -39.876410   1.000000   1.000000
    3      -39.876036    -39.875805   1.000000   1.000000
    4      -39.872208    -39.871977   1.000000   1.000000
    5      -17.028499    -17.028539   1.000000   1.000000
    6      -16.344353    -16.344406   1.000000   1.000000
    7      -14.909459    -14.909520   1.000000   1.000000
    8      -14.839879    -14.839943   1.000000   1.000000
    9      -12.725326    -12.725364   1.000000   1.000000
   10      -11.114506    -11.114538   1.000000   1.000000
   11       -6.756771     -6.756796   1.000000   1.000000
   12       -3.626518     -3.626538   1.000000   1.000000
   13       -3.335451     -3.335476   1.000000   1.000000
   14       -2.773659     -2.773682   1.000000   1.000000
   15       -2.699438     -2.699467   1.000000   1.000000
   16       -1.576915     -1.576961   1.000000   1.000000
   17       -0.734660     -0.734681   1.000000   1.000000
   18       -0.670839     -0.670851   1.000000   1.000000
   19        0.110992      0.110968   1.000000   1.000000
   20        0.379976      0.379957   1.000000   1.000000
   21        0.626036      0.626008   1.000000   1.000000
   22        1.112349      1.112310   1.000000   1.000000
   23        1.353296      1.353255   1.000000   1.000000
   24        1.435758      1.435712   1.000000   1.000000
   25        1.592933      1.592899   1.000000   1.000000
   26        2.265881      2.265854   1.000000   1.000000
   27        2.304094      2.304075   1.000000   1.000000
   28        2.944916      2.944910   1.000000   1.000000
   29        9.208330      9.208346  -0.000000  -0.000000
   30       10.058660     10.058664   0.000000   0.000000
   31       10.505320     10.505313   0.000000   0.000000
   32       11.827169     11.827136   0.000000   0.000000
   33       12.160222     12.160511   0.000000   0.000000
   34       12.451735     12.451659   0.000000   0.000000
   35       12.806981     12.806874   0.000000   0.000000
   36       13.516859     13.517624   0.000000   0.000000
   37       13.941912     13.942002   0.000000   0.000000
   38       14.420150     14.416192   0.000000   0.000000
   39       14.433883     14.421498   0.000000   0.000000
   40       15.053196     15.115272   0.000000   0.000000
 
  0.2857143E+00  0.2857143E+00  0.0000000E+00  0.5830904E-02
    1      -39.890863    -39.890633   1.000000   1.000000
    2      -39.889578    -39.889348   1.000000   1.000000
    3      -39.874661    -39.874430   1.000000   1.000000
    4      -39.869664    -39.869433   1.000000   1.000000
    5      -16.903322    -16.903366   1.000000   1.000000
    6      -16.467571    -16.467621   1.000000   1.000000
    7      -14.971628    -14.971687   1.000000   1.000000
    8      -14.823234    -14.823298   1.000000   1.000000
    9      -12.735680    -12.735718   1.000000   1.000000
   10      -11.107011    -11.107044   1.000000   1.000000
   11       -6.764365     -6.764388   1.000000   1.000000
   12       -3.705757     -3.705772   1.000000   1.000000
   13       -3.062362     -3.062387   1.000000   1.000000
   14       -2.854797     -2.854840   1.000000   1.000000
   15       -2.281516     -2.281549   1.000000   1.000000
   16       -1.735058     -1.735096   1.000000   1.000000
   17       -0.458750     -0.458777   1.000000   1.000000
   18       -0.218843     -0.218866   1.000000   1.000000
   19       -0.038536     -0.038549   1.000000   1.000000
   20        0.415568      0.415548   1.000000   1.000000
   21        0.447473      0.447438   1.000000   1.000000
   22        0.907229      0.907207   1.000000   1.000000
   23        0.940689      0.940666   1.000000   1.000000
   24        1.218240      1.218209   1.000000   1.000000
   25        1.504209      1.504162   1.000000   1.000000
   26        1.971341      1.971326   1.000000   1.000000
   27        2.579679      2.579638   1.000000   1.000000
   28        2.955979      2.955965   1.000000   1.000000
   29       10.068690     10.068662   0.000000   0.000000
   30       10.079282     10.079240   0.000000   0.000000
   31       10.967278     10.967288   0.000000   0.000000
   32       11.127434     11.127325   0.000000   0.000000
   33       11.741107     11.741061   0.000000   0.000000
   34       12.233103     12.233048   0.000000   0.000000
   35       12.468399     12.468225   0.000000   0.000000
   36       12.526672     12.526716   0.000000   0.000000
   37       13.328699     13.329388   0.000000   0.000000
   38       13.590540     13.589194   0.000000   0.000000
   39       14.322308     14.322191   0.000000   0.000000
   40       15.619654     15.617060   0.000000   0.000000
 
  0.4285714E+00  0.2857143E+00  0.0000000E+00  0.1166181E-01
    1      -39.893081    -39.892851   1.000000   1.000000
    2      -39.886507    -39.886276   1.000000   1.000000
    3      -39.875384    -39.875154   1.000000   1.000000
    4      -39.869827    -39.869596   1.000000   1.000000
    5      -16.918695    -16.918739   1.000000   1.000000
    6      -16.436585    -16.436636   1.000000   1.000000
    7      -15.000023    -15.000082   1.000000   1.000000
    8      -14.808829    -14.808893   1.000000   1.000000
    9      -12.747894    -12.747931   1.000000   1.000000
   10      -11.105477    -11.105509   1.000000   1.000000
   11       -6.779474     -6.779497   1.000000   1.000000
   12       -3.680050     -3.680065   1.000000   1.000000
   13       -2.967425     -2.967452   1.000000   1.000000
   14       -2.899773     -2.899816   1.000000   1.000000
   15       -2.162530     -2.162565   1.000000   1.000000
   16       -1.723949     -1.723987   1.000000   1.000000
   17       -0.521664     -0.521687   1.000000   1.000000
   18       -0.356654     -0.356669   1.000000   1.000000
   19       -0.132754     -0.132766   1.000000   1.000000
   20        0.238957      0.238926   1.000000   1.000000
   21        0.539347      0.539318   1.000000   1.000000
   22        0.938935      0.938913   1.000000   1.000000
   23        1.113096      1.113069   1.000000   1.000000
   24        1.177118      1.177087   1.000000   1.000000
   25        1.541283      1.541237   1.000000   1.000000
   26        2.022545      2.022527   1.000000   1.000000
   27        2.491774      2.491737   1.000000   1.000000
   28        2.948213      2.948199   1.000000   1.000000
   29       10.062248     10.062244   0.000000   0.000000
   30       10.280705     10.280696   0.000000   0.000000
   31       10.802728     10.802691   0.000000   0.000000
   32       11.125115     11.125118   0.000000   0.000000
   33       11.675971     11.675831   0.000000   0.000000
   34       12.036753     12.036744   0.000000   0.000000
   35       12.636730     12.636643   0.000000   0.000000
   36       12.878515     12.878638   0.000000   0.000000
   37       13.340782     13.340818   0.000000   0.000000
   38       13.945072     13.943849   0.000000   0.000000
   39       14.416902     14.415511   0.000000   0.000000
   40       15.344345     15.250647   0.000000   0.000000
 
 -0.4285714E+00  0.2857143E+00  0.0000000E+00  0.1166181E-01
    1      -39.895953    -39.895723   1.000000   1.000000
    2      -39.882104    -39.881874   1.000000   1.000000
    3      -39.876432    -39.876202   1.000000   1.000000
    4      -39.870237    -39.870006   1.000000   1.000000
    5      -16.957939    -16.957982   1.000000   1.000000
    6      -16.388667    -16.388719   1.000000   1.000000
    7      -15.001269    -15.001327   1.000000   1.000000
    8      -14.804738    -14.804802   1.000000   1.000000
    9      -12.753139    -12.753177   1.000000   1.000000
   10      -11.106098    -11.106130   1.000000   1.000000
   11       -6.785796     -6.785819   1.000000   1.000000
   12       -3.651659     -3.651674   1.000000   1.000000
   13       -3.054991     -3.055031   1.000000   1.000000
   14       -2.837293     -2.837321   1.000000   1.000000
   15       -2.212959     -2.212994   1.000000   1.000000
   16       -1.679043     -1.679082   1.000000   1.000000
   17       -0.648450     -0.648470   1.000000   1.000000
   18       -0.477427     -0.477440   1.000000   1.000000
   19       -0.019220     -0.019239   1.000000   1.000000