       N       E                     dE             d eps       ncg     rms          rms(c)
DAV:   1     0.418310089888E+03    0.41831E+03   -0.27489E+04 10240   0.146E+03
DAV:   2    -0.439183900765E+02   -0.46223E+03   -0.44288E+03 11928   0.374E+02
DAV:   3    -0.815066111080E+02   -0.37588E+02   -0.37408E+02 15056   0.993E+01
DAV:   4    -0.847901581507E+02   -0.32835E+01   -0.32707E+01 16768   0.234E+01
DAV:   5    -0.850132616968E+02   -0.22310E+00   -0.22309E+00 14320   0.456E+00    0.337E+01
RMM:   6    -0.769122293312E+02    0.81010E+01   -0.30008E+01 10908   0.229E+01    0.141E+01
RMM:   7    -0.773822179617E+02   -0.46999E+00   -0.46978E+00 15157   0.993E+00    0.719E+00
RMM:   8    -0.775598362043E+02   -0.17762E+00   -0.83146E-01 16681   0.472E+00    0.371E+00
RMM:   9    -0.775946031330E+02   -0.34767E-01   -0.27899E-01 16609   0.307E+00    0.104E+00
RMM:  10    -0.776215933792E+02   -0.26990E-01   -0.19580E-01 18946   0.187E+00    0.356E-01
RMM:  11    -0.776318612903E+02   -0.10268E-01   -0.85536E-02 19666   0.110E+00    0.276E-01
RMM:  12    -0.776361900230E+02   -0.43287E-02   -0.33363E-02 19921   0.687E-01    0.188E-01
RMM:  13    -0.776379105141E+02   -0.17205E-02   -0.12969E-02 19570   0.443E-01    0.687E-02
RMM:  14    -0.776386515199E+02   -0.74101E-03   -0.56960E-03 19659   0.306E-01    0.338E-02
RMM:  15    -0.776389279993E+02   -0.27648E-03   -0.24609E-03 19347   0.190E-01    0.289E-02
RMM:  16    -0.776390362962E+02   -0.10830E-03   -0.10504E-03 19005   0.122E-01    0.153E-02
RMM:  17    -0.776390753201E+02   -0.39024E-04   -0.40201E-04 18649   0.796E-02    0.489E-03
RMM:  18    -0.776390961721E+02   -0.20852E-04   -0.16855E-04 17082   0.539E-02    0.551E-03
RMM:  19    -0.776390999470E+02   -0.37749E-05   -0.40970E-05 13599   0.389E-02
   1 F= -.77639100E+02 E0= -.77639100E+02  d E =0.000000E+00  mag=     0.0000
