    8    8    1    2
  0.8998234E+01  0.4783668E-09  0.4783668E-09  0.4783668E-09  0.5000000E-15
  1.000000000000000E-004
  CAR 
 unknown system                          
     36    169     32
 
  0.0000000E+00  0.0000000E+00  0.0000000E+00  0.1562500E-02
    1      -37.927572    -37.927288   1.000000   1.000000
    2      -37.898245    -37.897960   1.000000   1.000000
    3      -13.862148    -13.862168   1.000000   1.000000
    4       -9.178558     -9.178589   1.000000   1.000000
    5       -9.178558     -9.178589   1.000000   1.000000
    6       -8.910471     -8.910503   1.000000   1.000000
    7       -6.879913     -6.879932   1.000000   1.000000
    8       -2.027558     -2.027577   1.000000   1.000000
    9       -2.027558     -2.027577   1.000000   1.000000
   10       -1.339244     -1.339263   1.000000   1.000000
   11        1.333121      1.333099   1.000000   1.000000
   12        2.475109      2.475120   1.000000   1.000000
   13        2.656063      2.656050   1.000000   1.000000
   14        3.838954      3.838937   1.000000   1.000000
   15        3.838955      3.838938   1.000000   1.000000
   16        4.263996      4.263977   1.000000   1.000000
   17        4.263997      4.263978   1.000000   1.000000
   18        4.385780      4.385752   1.000000   1.000000
   19        9.100335      9.100360   0.000002   0.000002
   20       12.072695     12.072727   0.000000   0.000000
   21       14.292300     14.292293   0.000000   0.000000
   22       14.292300     14.292293   0.000000   0.000000
   23       14.362392     14.362393   0.000000   0.000000
   24       14.362392     14.362394   0.000000   0.000000
   25       15.504451     15.504458   0.000000   0.000000
   26       15.697285     15.697301   0.000000   0.000000
   27       16.089939     16.089983   0.000000   0.000000
   28       16.506044     16.506059   0.000000   0.000000
   29       18.461321     18.461307   0.000000   0.000000
   30       19.127377     19.127382   0.000000   0.000000
   31       19.127383     19.127399   0.000000   0.000000
   32       19.772560     19.774331   0.000000   0.000000
 
  0.1250000E+00  0.6027867E-17  0.9110271E-18  0.6250000E-02
    1      -37.926703    -37.926419   1.000000   1.000000
    2      -37.899074    -37.898789   1.000000   1.000000
    3      -13.781694    -13.781714   1.000000   1.000000
    4       -9.503545     -9.503574   1.000000   1.000000
    5       -9.203569     -9.203599   1.000000   1.000000
    6       -8.995126     -8.995158   1.000000   1.000000
    7       -6.497186     -6.497207   1.000000   1.000000
    8       -2.050550     -2.050569   1.000000   1.000000
    9       -2.001888     -2.001907   1.000000   1.000000
   10       -1.245154     -1.245173   1.000000   1.000000
   11        1.265503      1.265483   1.000000   1.000000
   12        2.598440      2.598445   1.000000   1.000000
   13        2.654612      2.654599   1.000000   1.000000
   14        3.687935      3.687916   1.000000   1.000000
   15        3.874987      3.874966   1.000000   1.000000
   16        4.187363      4.187346   1.000000   1.000000
   17        4.238445      4.238428   1.000000   1.000000
   18        4.395236      4.395216   1.000000   1.000000
   19        9.451307      9.451330  -0.000000  -0.000000
   20       12.318297     12.318328   0.000000   0.000000
   21       13.487248     13.487246   0.000000   0.000000
   22       13.684909     13.684906   0.000000   0.000000
   23       14.402803     14.402799   0.000000   0.000000
   24       14.785281     14.785283   0.000000   0.000000
   25       15.328203     15.328215   0.000000   0.000000
   26       16.241029     16.241058   0.000000   0.000000
   27       16.452250     16.452264   0.000000   0.000000
   28       16.730320     16.730334   0.000000   0.000000
   29       18.183287     18.183278   0.000000   0.000000
   30       18.613708     18.613728   0.000000   0.000000
   31       18.894737     18.894783   0.000000   0.000000
   32       19.843256     19.848771   0.000000   0.000000
 
  0.2500000E+00  0.1205573E-16  0.1822054E-17  0.6250000E-02
    1      -37.924425    -37.924141   1.000000   1.000000
    2      -37.901261    -37.900976   1.000000   1.000000
    3      -13.555555    -13.555576   1.000000   1.000000
    4      -10.231265    -10.231291   1.000000   1.000000
    5       -9.247263     -9.247293   1.000000   1.000000
    6       -9.061087     -9.061117   1.000000   1.000000
    7       -5.810183     -5.810204   1.000000   1.000000
    8       -2.110819     -2.110837   1.000000   1.000000
    9       -1.852425     -1.852444   1.000000   1.000000
   10       -1.075476     -1.075496   1.000000   1.000000
   11        1.203911      1.203893   1.000000   1.000000
   12        2.606935      2.606918   1.000000   1.000000
   13        2.768701      2.768681   1.000000   1.000000
   14        3.048920      3.048925   1.000000   1.000000
   15        3.804135      3.804114   1.000000   1.000000
   16        4.100463      4.100441   1.000000   1.000000
   17        4.325693      4.325685   1.000000   1.000000
   18        4.766154      4.766134   1.000000   1.000000
   19       10.393497     10.393513   0.000000   0.000000
   20       12.442234     12.442249   0.000000   0.000000
   21       12.726728     12.726744   0.000000   0.000000
   22       13.201209     13.201203   0.000000   0.000000
   23       13.944495     13.944489   0.000000   0.000000
   24       15.298100     15.298110   0.000000   0.000000
   25       15.470516     15.470530   0.000000   0.000000
   26       16.478912     16.478913   0.000000   0.000000
   27       16.563209     16.563215   0.000000   0.000000
   28       17.335481     17.335472   0.000000   0.000000
   29       17.534866     17.534909   0.000000   0.000000
   30       17.988520     17.988542   0.000000   0.000000
   31       18.581956     18.581895   0.000000   0.000000
   32       19.860398     19.861336   0.000000   0.000000
 
  0.3750000E+00 -0.7067535E-16  0.1261865E-15  0.6250000E-02
    1      -37.921579    -37.921295   1.000000   1.000000
    2      -37.904013    -37.903729   1.000000   1.000000
    3      -13.251793    -13.251815   1.000000   1.000000
    4      -10.908640    -10.908664   1.000000   1.000000
    5       -9.268135     -9.268165   1.000000   1.000000
    6       -9.133385     -9.133415   1.000000   1.000000
    7       -5.262189     -5.262210   1.000000   1.000000
    8       -2.124148     -2.124169   1.000000   1.000000
    9       -1.583256     -1.583276   1.000000   1.000000
   10       -1.023082     -1.023102   1.000000   1.000000
   11        1.310730      1.310714   1.000000   1.000000
   12        2.010948      2.010933   1.000000   1.000000
   13        2.535775      2.535765   1.000000   1.000000
   14        3.183182      3.183172   1.000000   1.000000
   15        3.673327      3.673315   1.000000   1.000000
   16        3.953347      3.953328   1.000000   1.000000
   17        4.602473      4.602460   1.000000   1.000000
   18        5.152833      5.152807   1.000000   1.000000
   19       11.607361     11.607362   0.000000   0.000000
   20       11.758108     11.758118   0.000000   0.000000
   21       12.705037     12.705054   0.000000   0.000000
   22       13.215722     13.215735   0.000000   0.000000
   23       13.626319     13.626300   0.000000   0.000000
   24       15.241557     15.241579   0.000000   0.000000
   25       15.739762     15.739784   0.000000   0.000000
   26       16.126703     16.126700   0.000000   0.000000
   27       16.369669     16.369687   0.000000   0.000000
   28       16.803245     16.803239   0.000000   0.000000
   29       17.324476     17.324497   0.000000   0.000000
   30       18.216341     18.216363   0.000000   0.000000
   31       18.586715     18.587050   0.000000   0.000000
   32       19.698553     19.697453   0.000000   0.000000
 
  0.5000000E+00  0.2411147E-16  0.3644108E-17  0.6250000E-02
    1      -37.920087    -37.919803   1.000000   1.000000
    2      -37.905454    -37.905169   1.000000   1.000000
    3      -13.079135    -13.079157   1.000000   1.000000
    4      -11.213966    -11.213990   1.000000   1.000000
    5       -9.264806     -9.264836   1.000000   1.000000
    6       -9.174278     -9.174308   1.000000   1.000000
    7       -5.059190     -5.059210   1.000000   1.000000
    8       -2.108551     -2.108574   1.000000   1.000000
    9       -1.372190     -1.372214   1.000000   1.000000
   10       -1.094997     -1.095016   1.000000   1.000000
   11        1.399125      1.399117   1.000000   1.000000
   12        1.731650      1.731631   1.000000   1.000000
   13        2.321092      2.321084   1.000000   1.000000
   14        3.456102      3.456088   1.000000   1.000000
   15        3.550381      3.550364   1.000000   1.000000
   16        3.831944      3.831936   1.000000   1.000000
   17        4.756037      4.756019   1.000000   1.000000
   18        5.294884      5.294856   1.000000   1.000000
   19       11.426856     11.426863   0.000000   0.000000
   20       12.403535     12.403537   0.000000   0.000000
   21       12.818164     12.818161   0.000000   0.000000
   22       13.238130     13.238141   0.000000   0.000000
   23       13.563017     13.563003   0.000000   0.000000
   24       14.845945     14.845983   0.000000   0.000000
   25       15.319565     15.319582   0.000000   0.000000
   26       15.900974     15.900983   0.000000   0.000000
   27       16.363460     16.363468   0.000000   0.000000
   28       16.842483     16.842474   0.000000   0.000000
   29       17.659261     17.659298   0.000000   0.000000
   30       17.852442     17.852395   0.000000   0.000000
   31       18.776278     18.776217   0.000000   0.000000
   32       19.367303     19.366160   0.000000   0.000000
 
  0.1250000E+00  0.1250000E+00  0.4715386E-17  0.3125000E-02
    1      -37.925391    -37.925107   1.000000   1.000000
    2      -37.900363    -37.900079   1.000000   1.000000
    3      -13.652945    -13.652965   1.000000   1.000000
    4       -9.925472     -9.925499   1.000000   1.000000
    5       -9.249282     -9.249312   1.000000   1.000000
    6       -9.081930     -9.081961   1.000000   1.000000
    7       -6.010819     -6.010840   1.000000   1.000000
    8       -2.153279     -2.153296   1.000000   1.000000
    9       -1.770342     -1.770362   1.000000   1.000000
   10       -1.215336     -1.215355   1.000000   1.000000
   11        1.271033      1.271016   1.000000   1.000000
   12        2.604278      2.604264   1.000000   1.000000
   13        2.699944      2.699939   1.000000   1.000000
   14        3.305324      3.305312   1.000000   1.000000
   15        3.783510      3.783486   1.000000   1.000000
   16        4.155109      4.155089   1.000000   1.000000
   17        4.400373      4.400354   1.000000   1.000000
   18        4.449178      4.449166   1.000000   1.000000
   19        9.982096      9.982116  -0.000000  -0.000000
   20       12.395337     12.395365   0.000000   0.000000
   21       13.022783     13.022781   0.000000   0.000000
   22       13.206892     13.206890   0.000000   0.000000
   23       14.329221     14.329217   0.000000   0.000000
   24       14.898546     14.898555   0.000000   0.000000
   25       15.331610     15.331622   0.000000   0.000000
   26       16.175718     16.175727   0.000000   0.000000
   27       16.843679     16.843696   0.000000   0.000000
   28       17.346974     17.346989   0.000000   0.000000
   29       17.975191     17.975196   0.000000   0.000000
   30       18.167425     18.167471   0.000000   0.000000
   31       18.764520     18.764531   0.000000   0.000000
   32       19.541116     19.548906   0.000000   0.000000
 
  0.2500000E+00  0.1250000E+00  0.7356869E-16  0.6250000E-02
    1      -37.922769    -37.922485   1.000000   1.000000
    2      -37.902844    -37.902559   1.000000   1.000000
    3      -13.389863    -13.389884   1.000000   1.000000
    4      -10.596008    -10.596034   1.000000   1.000000
    5       -9.302430     -9.302459   1.000000   1.000000
    6       -9.137948     -9.137978   1.000000   1.000000
    7       -5.393867     -5.393889   1.000000   1.000000
    8       -2.240722     -2.240740   1.000000   1.000000
    9       -1.547527     -1.547547   1.000000   1.000000
   10       -1.086821     -1.086842   1.000000   1.000000
   11        1.322926      1.322911   1.000000   1.000000
   12        2.233467      2.233454   1.000000   1.000000
   13        2.592893      2.592880   1.000000   1.000000
   14        3.124449      3.124444   1.000000   1.000000
   15        3.673308      3.673289   1.000000   1.000000
   16        4.162268      4.162246   1.000000   1.000000
   17        4.522041      4.522027   1.000000   1.000000
   18        4.833074      4.833054   1.000000   1.000000
   19       10.958749     10.958763   0.000000   0.000000
   20       12.074411     12.074424   0.000000   0.000000
   21       12.361977     12.361986   0.000000   0.000000
   22       13.339825     13.339823   0.000000   0.000000
   23       14.018598     14.018598   0.000000   0.000000
   24       14.928862     14.928877   0.000000   0.000000
   25       15.576678     15.576693   0.000000   0.000000
   26       16.397236     16.397232   0.000000   0.000000
   27       16.879090     16.879100   0.000000   0.000000
   28       17.193228     17.193235   0.000000   0.000000
   29       17.352367     17.352397   0.000000   0.000000
   30       18.184224     18.184260   0.000000   0.000000
   31       18.491501     18.491565   0.000000   0.000000
   32       19.544895     19.549291   0.000000   0.000000
 
  0.3750000E+00  0.1250000E+00  0.6494192E-16  0.1250000E-01
    1      -37.920094    -37.919810   1.000000   1.000000
    2      -37.905429    -37.905145   1.000000   1.000000
    3      -13.089349    -13.089371   1.000000   1.000000
    4      -11.161106    -11.161131   1.000000   1.000000
    5       -9.321240     -9.321268   1.000000   1.000000
    6       -9.193057     -9.193087   1.000000   1.000000
    7       -4.968393     -4.968414   1.000000   1.000000
    8       -2.288350     -2.288372   1.000000   1.000000
    9       -1.326792     -1.326813   1.000000   1.000000
   10       -1.051937     -1.051957   1.000000   1.000000
   11        1.407809      1.407800   1.000000   1.000000
   12        1.720385      1.720370   1.000000   1.000000
   13        2.425453      2.425441   1.000000   1.000000
   14        3.249168      3.249153   1.000000   1.000000
   15        3.677966      3.677954   1.000000   1.000000
   16        4.090873      4.090854   1.000000   1.000000
   17        4.691235      4.691218   1.000000   1.000000
   18        5.141519      5.141493   1.000000   1.000000
   19       11.513774     11.513780   0.000000   0.000000
   20       12.137747     12.137752   0.000000   0.000000
   21       12.364621     12.364632   0.000000   0.000000
   22       13.128331     13.128330   0.000000   0.000000
   23       14.040152     14.040153   0.000000   0.000000
   24       14.970746     14.970781   0.000000   0.000000
   25       15.637383     15.637410   0.000000   0.000000
   26       15.924775     15.924778   0.000000   0.000000
   27       16.311262     16.311276   0.000000   0.000000
   28       16.886295     16.886288   0.000000   0.000000
   29       17.375043     17.375061   0.000000   0.000000
   30       17.904895     17.904923   0.000000   0.000000
   31       18.701124     18.703305   0.000000   0.000000
   32       19.728963     19.737112   0.000000   0.000000
 
  0.5000000E+00  0.1250000E+00 -0.7875987E-17  0.1250000E-01
    1      -37.919535    -37.919251   1.000000   1.000000
    2      -37.905998    -37.905713   1.000000   1.000000
    3      -13.017928    -13.017951   1.000000   1.000000
    4      -11.271845    -11.271869   1.000000   1.000000
    5       -9.327171     -9.327200   1.000000   1.000000
    6       -9.189905     -9.189935   1.000000   1.000000
    7       -4.919650     -4.919671   1.000000   1.000000
    8       -2.354055     -2.354078   1.000000   1.000000
    9       -1.352014     -1.352036   1.000000   1.000000
   10       -0.945161     -0.945181   1.000000   1.000000
   11        1.231910      1.231901   1.000000   1.000000
   12        1.753870      1.753857   1.000000   1.000000
   13        2.462046      2.462033   1.000000   1.000000
   14        3.463130      3.463111   1.000000   1.000000
   15        3.654938      3.654924   1.000000   1.000000
   16        3.985107      3.985095   1.000000   1.000000
   17        4.707454      4.707437   1.000000   1.000000
   18        5.204561      5.204534   1.000000   1.000000
   19       11.390604     11.390611   0.000000   0.000000
   20       12.256926     12.256928   0.000000   0.000000
   21       12.837612     12.837614   0.000000   0.000000
   22       13.117015     13.117014   0.000000   0.000000
   23       13.989046     13.989049   0.000000   0.000000
   24       14.816287     14.816323   0.000000   0.000000
   25       15.457990     15.458014   0.000000   0.000000
   26       15.766464     15.766483   0.000000   0.000000
   27       16.048670     16.048684   0.000000   0.000000
   28       17.082463     17.082459   0.000000   0.000000
   29       17.389773     17.389755   0.000000   0.000000
   30       17.855950     17.855989   0.000000   0.000000
   31       18.797485     18.797246   0.000000   0.000000
   32       19.488042     19.485693   0.000000   0.000000
 
 -0.3750000E+00  0.1250000E+00 -0.6022654E-16  0.6250000E-02
    1      -37.921755    -37.921471   1.000000   1.000000
    2      -37.903810    -37.903525   1.000000   1.000000
    3      -13.272064    -13.272086   1.000000   1.000000
    4      -10.824632    -10.824657   1.000000   1.000000
    5       -9.317756     -9.317784   1.000000   1.000000
    6       -9.122685     -9.122716   1.000000   1.000000
    7       -5.273926     -5.273948   1.000000   1.000000
    8       -2.425474     -2.425493   1.000000   1.000000
    9       -1.555339     -1.555359   1.000000   1.000000
   10       -0.847909     -0.847930   1.000000   1.000000
   11        1.059134      1.059120   1.000000   1.000000
   12        2.150500      2.150487   1.000000   1.000000
   13        2.788512      2.788496   1.000000   1.000000
   14        3.323246      3.323237   1.000000   1.000000
   15        3.757462      3.757440   1.000000   1.000000
   16        3.966908      3.966892   1.000000   1.000000
   17        4.526627      4.526617   1.000000   1.000000
   18        5.019651      5.019627   1.000000   1.000000
   19       11.262955     11.262963   0.000000   0.000000
   20       11.894340     11.894351   0.000000   0.000000
   21       12.917285     12.917293   0.000000   0.000000
   22       13.282158     13.282160   0.000000   0.000000
   23       13.832247     13.832242   0.000000   0.000000
   24       14.965995     14.966021   0.000000   0.000000
   25       15.571673     15.571679   0.000000   0.000000
   26       16.066516     16.066518   0.000000   0.000000
   27       16.556485     16.556514   0.000000   0.000000
   28       16.944528     16.944543   0.000000   0.000000
   29       17.420251     17.420245   0.000000   0.000000
   30       18.077487     18.077507   0.000000   0.000000
   31       18.598823     18.598996   0.000000   0.000000
   32       19.612268     19.609004   0.000000   0.000000
 
 -0.2500000E+00  0.1250000E+00 -0.9110271E-18  0.6250000E-02
    1      -37.924568    -37.924284   1.000000   1.000000
    2      -37.901128    -37.900843   1.000000   1.000000
    3      -13.566728    -13.566748   1.000000   1.000000
    4      -10.164057    -10.164084   1.000000   1.000000
    5       -9.271242     -9.271271   1.000000   1.000000
    6       -9.041012     -9.041043   1.000000   1.000000
    7       -5.878398     -5.878420   1.000000   1.000000
    8       -2.400151     -2.400167   1.000000   1.000000
    9       -1.746019     -1.746039   1.000000   1.000000
   10       -0.932735     -0.932756   1.000000   1.000000
   11        1.007745      1.007730   1.000000   1.000000
   12        2.746449      2.746431   1.000000   1.000000
   13        2.863234      2.863216   1.000000   1.000000
   14        3.236353      3.236353   1.000000   1.000000
   15        3.863401      3.863377   1.000000   1.000000
   16        4.029524      4.029501   1.000000   1.000000
   17        4.358776      4.358767   1.000000   1.000000
   18        4.657839      4.657823   1.000000   1.000000
   19       10.235091     10.235108   0.000000   0.000000
   20       12.566443     12.566463   0.000000   0.000000
   21       13.028522     13.028519   0.000000   0.000000
   22       13.438922     13.438927   0.000000   0.000000
   23       13.947427     13.947427   0.000000   0.000000
   24       14.548527     14.548534   0.000000   0.000000
   25       15.751672     15.751681   0.000000   0.000000
   26       16.143871     16.143876   0.000000   0.000000
   27       17.061395     17.061399   0.000000   0.000000
   28       17.274494     17.274498   0.000000   0.000000
   29       17.558445     17.558477   0.000000   0.000000
   30       17.689028     17.689056   0.000000   0.000000
   31       18.729691     18.729773   0.000000   0.000000
   32       19.885921     19.851320   0.000000   0.000000
 
 -0.1250000E+00  0.1250000E+00  0.2153035E-17  0.3125000E-02
    1      -37.926382    -37.926099   1.000000   1.000000
    2      -37.899328    -37.899043   1.000000   1.000000
    3      -13.751106    -13.751126   1.000000   1.000000
    4       -9.620072     -9.620101   1.000000   1.000000
    5       -9.217625     -9.217655   1.000000   1.000000
    6       -8.964639     -8.964670   1.000000   1.000000
    7       -6.430517     -6.430538   1.000000   1.000000
    8       -2.260644     -2.260661   1.000000   1.000000
    9       -1.891253     -1.891273   1.000000   1.000000
   10       -1.118317     -1.118337   1.000000   1.000000
   11        1.141993      1.141975   1.000000   1.000000
   12        2.658940      2.658942   1.000000   1.000000
   13        2.753409      2.753394   1.000000   1.000000
   14        3.654807      3.654790   1.000000   1.000000
   15        3.884705      3.884683   1.000000   1.000000
   16        4.171437      4.171412   1.000000   1.000000
   17        4.266836      4.266822   1.000000   1.000000
   18        4.396989      4.396977   1.000000   1.000000
   19        9.542110      9.542132   0.000000   0.000000
   20       12.440649     12.440677   0.000000   0.000000
   21       13.615508     13.615512   0.000000   0.000000
   22       13.859984     13.859976   0.000000   0.000000
   23       14.098670     14.098661   0.000000   0.000000
   24       14.317911     14.317923   0.000000   0.000000
   25       15.810839     15.810849   0.000000   0.000000
   26       16.122125     16.122137   0.000000   0.000000
   27       16.488138     16.488157   0.000000   0.000000
   28       16.811953     16.811975   0.000000   0.000000
   29       17.958425     17.958417   0.000000   0.000000
   30       18.339967     18.340010   0.000000   0.000000
   31       19.019695     19.019752   0.000000   0.000000
   32       19.858846     19.882224   0.000000   0.000000
 
  0.2500000E+00  0.2500000E+00  0.9430771E-17  0.6250000E-02
    1      -37.920091    -37.919807   1.000000   1.000000
    2      -37.905456    -37.905171   1.000000   1.000000
    3      -13.099322    -13.099344   1.000000   1.000000
    4      -11.105067    -11.105092   1.000000   1.000000
    5       -9.390698     -9.390726   1.000000   1.000000
    6       -9.201492     -9.201522   1.000000   1.000000
    7       -4.871369     -4.871392   1.000000   1.000000
    8       -2.458429     -2.458450   1.000000   1.000000
    9       -1.302719     -1.302738   1.000000   1.000000
   10       -0.996352     -0.996374   1.000000   1.000000
   11        1.499013      1.498999   1.000000   1.000000
   12        1.589298      1.589294   1.000000   1.000000
   13        2.480162      2.480148   1.000000   1.000000
   14        3.335377      3.335362   1.000000   1.000000
   15        3.718757      3.718738   1.000000   1.000000
   16        4.237135      4.237114   1.000000   1.000000
   17        4.684507      4.684486   1.000000   1.000000
   18        4.915317      4.915299   1.000000   1.000000
   19       11.525543     11.525551   0.000000   0.000000
   20       11.944550     11.944564   0.000000   0.000000
   21       12.116391     12.116395   0.000000   0.000000
   22       13.170464     13.170457   0.000000   0.000000
   23       14.458092     14.458107   0.000000   0.000000
   24       14.609168     14.609189   0.000000   0.000000
   25       15.504401     15.504414   0.000000   0.000000
   26       16.509288     16.509304   0.000000   0.000000
   27       16.616564     16.616568   0.000000   0.000000
   28       16.772569     16.772580   0.000000   0.000000
   29       17.440674     17.440697   0.000000   0.000000
   30       17.681785     17.681821   0.000000   0.000000
   31       18.719283     18.719288   0.000000   0.000000
   32       19.349918     19.381119   0.000000   0.000000
 
  0.3750000E+00  0.2500000E+00  0.3697339E-17  0.6250000E-02
    1      -37.917589    -37.917305   1.000000   1.000000
    2      -37.907863    -37.907578   1.000000   1.000000
    3      -12.803400    -12.803423   1.000000   1.000000
    4      -11.527756    -11.527780   1.000000   1.000000
    5       -9.416630     -9.416657   1.000000   1.000000
    6       -9.257872     -9.257901   1.000000   1.000000
    7       -4.517343     -4.517365   1.000000   1.000000
    8       -2.722866     -2.722889   1.000000   1.000000
    9       -1.139400     -1.139419   1.000000   1.000000
   10       -0.931228     -0.931248   1.000000   1.000000
   11        1.220237      1.220235   1.000000   1.000000
   12        1.780244      1.780228   1.000000   1.000000
   13        2.293596      2.293583   1.000000   1.000000
   14        3.334537      3.334516   1.000000   1.000000
   15        3.961096      3.961077   1.000000   1.000000
   16        4.301214      4.301194   1.000000   1.000000
   17        4.681967      4.681947   1.000000   1.000000
   18        5.026961      5.026936   1.000000   1.000000
   19       11.416838     11.416842   0.000000   0.000000
   20       12.238448     12.238454   0.000000   0.000000
   21       12.615836     12.615843   0.000000   0.000000
   22       12.828714     12.828708   0.000000   0.000000
   23       14.525547     14.525556   0.000000   0.000000
   24       14.917917     14.917953   0.000000   0.000000
   25       15.299575     15.299589   0.000000   0.000000
   26       15.863708     15.863734   0.000000   0.000000
   27       16.129363     16.129370   0.000000   0.000000
   28       16.722119     16.722121   0.000000   0.000000
   29       17.189985     17.190004   0.000000   0.000000
   30       17.746486     17.746491   0.000000   0.000000
   31       18.777042     18.776876   0.000000   0.000000
   32       19.482774     19.484346   0.000000   0.000000
 
  0.5000000E+00  0.2500000E+00  0.1471374E-15  0.1250000E-01
    1      -37.917906    -37.917621   1.000000   1.000000
    2      -37.907530    -37.907246   1.000000   1.000000
    3      -12.837698    -12.837721   1.000000   1.000000
    4      -11.467098    -11.467123   1.000000   1.000000
    5       -9.398719     -9.398746   1.000000   1.000000
    6       -9.258704     -9.258733   1.000000   1.000000
    7       -4.585491     -4.585513   1.000000   1.000000
    8       -2.908995     -2.909016   1.000000   1.000000
    9       -1.165759     -1.165779   1.000000   1.000000
   10       -0.745763     -0.745784   1.000000   1.000000
   11        1.085945      1.085937   1.000000   1.000000
   12        1.784400      1.784391   1.000000   1.000000
   13        2.586797      2.586781   1.000000   1.000000
   14        3.282867      3.282845   1.000000   1.000000
   15        4.021202      4.021184   1.000000   1.000000
   16        4.249174      4.249154   1.000000   1.000000
   17        4.664556      4.664540   1.000000   1.000000
   18        5.029636      5.029609   1.000000   1.000000
   19       11.468499     11.468502   0.000000   0.000000
   20       12.051911     12.051917   0.000000   0.000000
   21       12.884313     12.884313   0.000000   0.000000
   22       13.238427     13.238426   0.000000   0.000000
   23       14.238259     14.238268   0.000000   0.000000
   24       14.797834     14.797877   0.000000   0.000000
   25       15.121548     15.121569   0.000000   0.000000
   26       15.560159     15.560161   0.000000   0.000000
   27       16.226380     16.226430   0.000000   0.000000
   28       16.632005     16.632016   0.000000   0.000000
   29       17.402837     17.402820   0.000000   0.000000
   30       18.117400     18.117378   0.000000   0.000000
   31       18.718170     18.718024   0.000000   0.000000
   32       19.537174     19.539277   0.000000   0.000000
 
 -0.3750000E+00  0.2500000E+00 -0.3011327E-16  0.6250000E-02
    1      -37.920592    -37.920308   1.000000   1.000000
    2      -37.904892    -37.904607   1.000000   1.000000
    3      -13.147460    -13.147482   1.000000   1.000000
    4      -10.981668    -10.981694   1.000000   1.000000
    5       -9.359470     -9.359499   1.000000   1.000000
    6       -9.198842     -9.198872   1.000000   1.000000
    7       -5.037578     -5.037601   1.000000   1.000000
    8       -2.887774     -2.887791   1.000000   1.000000
    9       -1.306455     -1.306475   1.000000   1.000000
   10       -0.639475     -0.639498   1.000000   1.000000
   11        0.859578      0.859569   1.000000   1.000000
   12        2.218031      2.218020   1.000000   1.000000
   13        2.978945      2.978927   1.000000   1.000000
   14        3.205499      3.205480   1.000000   1.000000
   15        3.880696      3.880679   1.000000   1.000000
   16        4.032286      4.032268   1.000000   1.000000