    4    4    1    2
  0.1191525E+02  0.3353499E-09  0.3353499E-09  0.5070205E-09  0.5000000E-15
  1.000000000000000E-004
  CAR 
 unknown system                          
     18    234     16
 
  0.0000000E+00  0.0000000E+00  0.0000000E+00  0.1180638E-02
    1      -43.756073    -43.755622   1.000000   1.000000
    2      -21.654380    -21.654410   1.000000   1.000000
    3      -17.335026    -17.335069   1.000000   1.000000
    4       -7.020538     -7.020594   1.000000   1.000000
    5       -5.231068     -5.231097   1.000000   1.000000
    6       -5.171623     -5.171657   1.000000   1.000000
    7       -3.963492     -3.963555   1.000000   1.000000
    8        0.340631      0.340549   1.000000   1.000000
    9        0.403989      0.403905   1.000000   1.000000
   10        5.756595      5.756568   0.000000   0.000000
   11        5.872927      5.872932   0.000000   0.000000
   12        6.086545      6.086506   0.000000   0.000000
   13        9.605354      9.605489   0.000000   0.000000
   14       10.717373     10.717367   0.000000   0.000000
   15       13.383314     13.383425   0.000000   0.000000
   16       13.923000     13.919595   0.000000   0.000000
 
  0.9090909E-01 -0.2975800E-17 -0.3730524E-17  0.4722550E-02
    1      -43.755729    -43.755279   1.000000   1.000000
    2      -21.639955    -21.639985   1.000000   1.000000
    3      -17.326903    -17.326947   1.000000   1.000000
    4       -6.981066     -6.981123   1.000000   1.000000
    5       -5.323776     -5.323807   1.000000   1.000000
    6       -5.201511     -5.201544   1.000000   1.000000
    7       -3.969501     -3.969565   1.000000   1.000000
    8        0.234815      0.234735   1.000000   1.000000
    9        0.325865      0.325783   1.000000   1.000000
   10        5.653547      5.653540   0.000000   0.000000
   11        5.882208      5.882182   0.000000   0.000000
   12        6.294803      6.294777   0.000000   0.000000
   13        9.802503      9.802636   0.000000   0.000000
   14       10.773195     10.773190   0.000000   0.000000
   15       13.398496     13.398569   0.000000   0.000000
   16       13.741627     13.740881   0.000000   0.000000
 
  0.1818182E+00  0.1063954E-17  0.1279923E-16  0.4722550E-02
    1      -43.754808    -43.754357   1.000000   1.000000
    2      -21.601200    -21.601230   1.000000   1.000000
    3      -17.305011    -17.305054   1.000000   1.000000
    4       -6.871681     -6.871736   1.000000   1.000000
    5       -5.584457     -5.584492   1.000000   1.000000
    6       -5.255771     -5.255805   1.000000   1.000000
    7       -3.987097     -3.987163   1.000000   1.000000
    8       -0.121524     -0.121594   1.000000   1.000000
    9        0.209803      0.209724   1.000000   1.000000
   10        5.398422      5.398426   0.000000   0.000000
   11        5.869192      5.869156   0.000000   0.000000
   12        6.856593      6.856576   0.000000   0.000000
   13       10.302502     10.302626   0.000000   0.000000
   14       10.943153     10.943422   0.000000   0.000000
   15       12.935411     12.930327   0.000000   0.000000
   16       13.478308     13.465658   0.000000   0.000000
 
  0.2727273E+00  0.1299290E-16  0.3207533E-16  0.4722550E-02
    1      -43.753607    -43.753156   1.000000   1.000000
    2      -21.549616    -21.549645   1.000000   1.000000
    3      -17.276221    -17.276264   1.000000   1.000000
    4       -6.723303     -6.723356   1.000000   1.000000
    5       -5.899273     -5.899314   1.000000   1.000000
    6       -5.321451     -5.321485   1.000000   1.000000
    7       -4.017808     -4.017877   1.000000   1.000000
    8       -0.560018     -0.560077   1.000000   1.000000
    9        0.070345      0.070271   1.000000   1.000000
   10        5.029140      5.029151   0.000000   0.000000
   11        5.890650      5.890611   0.000000   0.000000
   12        7.541846      7.541834   0.000000   0.000000
   13       10.766664     10.766795   0.000000   0.000000
   14       11.286635     11.285786   0.000000   0.000000
   15       12.258918     12.253805   0.000000   0.000000
   16       13.400316     13.387496   0.000000   0.000000
 
  0.3636364E+00 -0.4446841E-16  0.6798142E-17  0.4722550E-02
    1      -43.752515    -43.752064   1.000000   1.000000
    2      -21.501440    -21.501471   1.000000   1.000000
    3      -17.249646    -17.249690   1.000000   1.000000
    4       -6.601888     -6.601932   1.000000   1.000000
    5       -6.137668     -6.137722   1.000000   1.000000
    6       -5.380351     -5.380386   1.000000   1.000000
    7       -4.059541     -4.059613   1.000000   1.000000
    8       -0.933637     -0.933687   1.000000   1.000000
    9       -0.051621     -0.051691   1.000000   1.000000
   10        4.684865      4.684883   0.000000   0.000000
   11        5.910435      5.910394   0.000000   0.000000
   12        8.066815      8.066791   0.000000   0.000000
   13       10.978804     10.978783   0.000000   0.000000
   14       11.434179     11.431305   0.000000   0.000000
   15       12.452075     12.450556   0.000000   0.000000
   16       13.268765     13.257966   0.000000   0.000000
 
  0.4545455E+00 -0.2347395E-16  0.2807684E-16  0.4722550E-02
    1      -43.751863    -43.751412   1.000000   1.000000
    2      -21.472439    -21.472469   1.000000   1.000000
    3      -17.233788    -17.233832   1.000000   1.000000
    4       -6.580699     -6.580733   1.000000   1.000000
    5       -6.210402     -6.210473   1.000000   1.000000
    6       -5.415021     -5.415056   1.000000   1.000000
    7       -4.094016     -4.094089   1.000000   1.000000
    8       -1.143675     -1.143719   1.000000   1.000000
    9       -0.121206     -0.121275   1.000000   1.000000
   10        4.480207      4.480228   0.000000   0.000000
   11        5.919909      5.919867   0.000000   0.000000
   12        8.283945      8.283963   0.000000   0.000000
   13       11.003021     11.003088   0.000000   0.000000
   14       11.566111     11.565699   0.000000   0.000000
   15       12.867121     12.867776   0.000000   0.000000
   16       13.139370     13.139194   0.000000   0.000000
 
  0.9090909E-01  0.9090909E-01 -0.1585990E-16  0.2361275E-02
    1      -43.755683    -43.755232   1.000000   1.000000
    2      -21.638154    -21.638184   1.000000   1.000000
    3      -17.328428    -17.328471   1.000000   1.000000
    4       -6.962211     -6.962268   1.000000   1.000000
    5       -5.276253     -5.276287   1.000000   1.000000
    6       -5.262538     -5.262568   1.000000   1.000000
    7       -3.993915     -3.993979   1.000000   1.000000
    8        0.178590      0.178512   1.000000   1.000000
    9        0.399555      0.399471   1.000000   1.000000
   10        5.610404      5.610401   0.000000   0.000000
   11        5.998842      5.998806   0.000000   0.000000
   12        6.267008      6.266987   0.000000   0.000000
   13        9.755980      9.756109   0.000000   0.000000
   14       10.726752     10.726771   0.000000   0.000000
   15       13.373483     13.373493   0.000000   0.000000
   16       13.956959     13.956218   0.000000   0.000000
 
  0.1818182E+00  0.9090909E-01  0.2367647E-16  0.4722550E-02
    1      -43.755025    -43.754574   1.000000   1.000000
    2      -21.609963    -21.609993   1.000000   1.000000
    3      -17.314782    -17.314825   1.000000   1.000000
    4       -6.869165     -6.869222   1.000000   1.000000
    5       -5.484620     -5.484655   1.000000   1.000000
    6       -5.284021     -5.284053   1.000000   1.000000
    7       -4.029025     -4.029091   1.000000   1.000000
    8       -0.057108     -0.057179   1.000000   1.000000
    9        0.323938      0.323857   1.000000   1.000000
   10        5.503886      5.503889   0.000000   0.000000
   11        5.891436      5.891400   0.000000   0.000000
   12        6.709504      6.709481   0.000000   0.000000
   13       10.068785     10.068890   0.000000   0.000000
   14       10.813600     10.813774   0.000000   0.000000
   15       13.284592     13.283346   0.000000   0.000000
   16       13.380064     13.376167   0.000000   0.000000
 
  0.2727273E+00  0.9090909E-01  0.2359585E-16  0.4722550E-02
    1      -43.753960    -43.753510   1.000000   1.000000
    2      -21.563897    -21.563927   1.000000   1.000000
    3      -17.290242    -17.290286   1.000000   1.000000
    4       -6.722733     -6.722790   1.000000   1.000000
    5       -5.779388     -5.779427   1.000000   1.000000
    6       -5.344971     -5.345004   1.000000   1.000000
    7       -4.070781     -4.070849   1.000000   1.000000
    8       -0.409130     -0.409191   1.000000   1.000000
    9        0.163213      0.163137   1.000000   1.000000
   10        5.203844      5.203852   0.000000   0.000000
   11        5.861149      5.861114   0.000000   0.000000
   12        7.369081      7.369062   0.000000   0.000000
   13       10.500395     10.500535   0.000000   0.000000
   14       11.115449     11.115286   0.000000   0.000000
   15       12.420781     12.420001   0.000000   0.000000
   16       13.358741     13.357980   0.000000   0.000000
 
  0.3636364E+00  0.9090909E-01  0.2899417E-16  0.4722550E-02
    1      -43.752834    -43.752383   1.000000   1.000000
    2      -21.514089    -21.514119   1.000000   1.000000
    3      -17.262538    -17.262581   1.000000   1.000000
    4       -6.573059     -6.573110   1.000000   1.000000
    5       -6.052201     -6.052249   1.000000   1.000000
    6       -5.416402     -5.416437   1.000000   1.000000
    7       -4.116190     -4.116261   1.000000   1.000000
    8       -0.768767     -0.768820   1.000000   1.000000
    9       -0.008700     -0.008771   1.000000   1.000000
   10        4.838093      4.838107   0.000000   0.000000
   11        5.850801      5.850766   0.000000   0.000000
   12        8.036528      8.036510   0.000000   0.000000
   13       10.802033     10.801586   0.000000   0.000000
   14       11.372085     11.370658   0.000000   0.000000
   15       12.239936     12.239429   0.000000   0.000000
   16       13.300385     13.299114   0.000000   0.000000
 
  0.4545455E+00  0.9090909E-01  0.8094837E-16  0.4722550E-02
    1      -43.751984    -43.751533   1.000000   1.000000
    2      -21.476540    -21.476570   1.000000   1.000000
    3      -17.240402    -17.240446   1.000000   1.000000
    4       -6.518839     -6.518875   1.000000   1.000000
    5       -6.180066     -6.180134   1.000000   1.000000
    6       -5.468924     -5.468960   1.000000   1.000000
    7       -4.150715     -4.150787   1.000000   1.000000
    8       -1.029051     -1.029098   1.000000   1.000000
    9       -0.141604     -0.141671   1.000000   1.000000
   10        4.558554      4.558574   0.000000   0.000000
   11        5.830585      5.830551   0.000000   0.000000
   12        8.443697      8.443707   0.000000   0.000000
   13       11.027621     11.027452   0.000000   0.000000
   14       11.387638     11.387215   0.000000   0.000000
   15       12.590244     12.591447   0.000000   0.000000
   16       13.203763     13.203300   0.000000   0.000000
 
 -0.4545455E+00  0.9090909E-01  0.7996971E-17  0.4722550E-02
    1      -43.751674    -43.751223   1.000000   1.000000
    2      -21.463812    -21.463842   1.000000   1.000000
    3      -17.230895    -17.230938   1.000000   1.000000
    4       -6.557191     -6.557223   1.000000   1.000000
    5       -6.172572     -6.172644   1.000000   1.000000
    6       -5.487155     -5.487191   1.000000   1.000000
    7       -4.145364     -4.145437   1.000000   1.000000
    8       -1.124351     -1.124396   1.000000   1.000000
    9       -0.203343     -0.203409   1.000000   1.000000
   10        4.456268      4.456288   0.000000   0.000000
   11        5.808859      5.808826   0.000000   0.000000
   12        8.561291      8.561311   0.000000   0.000000
   13       11.067531     11.067602   0.000000   0.000000
   14       11.559222     11.558952   0.000000   0.000000
   15       12.689992     12.690983   0.000000   0.000000
   16       13.108265     13.108347   0.000000   0.000000
 
 -0.3636364E+00  0.9090909E-01  0.5447224E-16  0.4722550E-02
    1      -43.752037    -43.751586   1.000000   1.000000
    2      -21.480304    -21.480336   1.000000   1.000000
    3      -17.237248    -17.237291   1.000000   1.000000
    4       -6.592116     -6.592155   1.000000   1.000000
    5       -6.127959     -6.128021   1.000000   1.000000
    6       -5.469688     -5.469724   1.000000   1.000000
    7       -4.091416     -4.091489   1.000000   1.000000
    8       -1.033057     -1.033104   1.000000   1.000000
    9       -0.177490     -0.177557   1.000000   1.000000
   10        4.558366      4.558385   0.000000   0.000000
   11        5.793555      5.793522   0.000000   0.000000
   12        8.454850      8.454818   0.000000   0.000000
   13       11.092971     11.093056   0.000000   0.000000
   14       11.534064     11.532658   0.000000   0.000000
   15       12.508717     12.508921   0.000000   0.000000
   16       13.067805     13.066533   0.000000   0.000000
 
 -0.2727273E+00  0.9090909E-01  0.4891269E-16  0.4722550E-02
    1      -43.752921    -43.752470   1.000000   1.000000
    2      -21.520249    -21.520281   1.000000   1.000000
    3      -17.257364    -17.257408   1.000000   1.000000
    4       -6.677586     -6.677635   1.000000   1.000000
    5       -5.979547     -5.979594   1.000000   1.000000
    6       -5.415344     -5.415379   1.000000   1.000000
    7       -4.023509     -4.023580   1.000000   1.000000
    8       -0.770312     -0.770364   1.000000   1.000000
    9       -0.069516     -0.069587   1.000000   1.000000
   10        4.829008      4.829022   0.000000   0.000000
   11        5.782465      5.782435   0.000000   0.000000
   12        8.043073      8.042953   0.000000   0.000000
   13       11.066515     11.066415   0.000000   0.000000
   14       11.489499     11.479818   0.000000   0.000000
   15       12.125441     12.125131   0.000000   0.000000
   16       13.171193     13.139960   0.000000   0.000000
 
 -0.1818182E+00  0.9090909E-01  0.7932712E-16  0.4722550E-02
    1      -43.754079    -43.753628   1.000000   1.000000
    2      -21.570457    -21.570487   1.000000   1.000000
    3      -17.284806    -17.284849   1.000000   1.000000
    4       -6.809170     -6.809222   1.000000   1.000000
    5       -5.732380     -5.732418   1.000000   1.000000
    6       -5.332186     -5.332221   1.000000   1.000000
    7       -3.977753     -3.977822   1.000000   1.000000
    8       -0.393740     -0.393802   1.000000   1.000000
    9        0.085168      0.085094   1.000000   1.000000
   10        5.186153      5.186161   0.000000   0.000000
   11        5.768264      5.768235   0.000000   0.000000
   12        7.375043      7.375104   0.000000   0.000000
   13       10.733173     10.733180   0.000000   0.000000
   14       11.200929     11.198883   0.000000   0.000000
   15       12.479114     12.471351   0.000000   0.000000
   16       13.344837     13.301681   0.000000   0.000000
 
 -0.9090909E-01  0.9090909E-01  0.7821289E-16  0.2361275E-02
    1      -43.755109    -43.754658   1.000000   1.000000
    2      -21.614889    -21.614919   1.000000   1.000000
    3      -17.310654    -17.310698   1.000000   1.000000
    4       -6.924169     -6.924224   1.000000   1.000000
    5       -5.484630     -5.484663   1.000000   1.000000
    6       -5.245293     -5.245327   1.000000   1.000000
    7       -3.961890     -3.961956   1.000000   1.000000
    8       -0.006260     -0.006332   1.000000   1.000000
    9        0.226876      0.226796   1.000000   1.000000
   10        5.527641      5.527641   0.000000   0.000000
   11        5.756971      5.756943   0.000000   0.000000
   12        6.717456      6.717432   0.000000   0.000000
   13       10.187621     10.187762   0.000000   0.000000
   14       10.932745     10.932752   0.000000   0.000000
   15       13.308132     13.311093   0.000000   0.000000
   16       13.669686     13.647829   0.000000   0.000000
 
  0.1818182E+00  0.1818182E+00  0.8800742E-17  0.2361275E-02
    1      -43.754653    -43.754203   1.000000   1.000000
    2      -21.594170    -21.594200   1.000000   1.000000
    3      -17.310999    -17.311043   1.000000   1.000000
    4       -6.796187     -6.796244   1.000000   1.000000
    5       -5.536936     -5.536974   1.000000   1.000000
    6       -5.345760     -5.345791   1.000000   1.000000
    7       -4.089836     -4.089903   1.000000   1.000000
    8       -0.226972     -0.227037   1.000000   1.000000
    9        0.390289      0.390206   1.000000   1.000000
   10        5.526630      5.526633   0.000000   0.000000
   11        5.764695      5.764665   0.000000   0.000000
   12        6.949521      6.949490   0.000000   0.000000
   13       10.102849     10.102868   0.000000   0.000000
   14       10.862478     10.863269   0.000000   0.000000
   15       13.185965     13.189773   0.000000   0.000000
   16       13.339089     13.338468   0.000000   0.000000
 
  0.2727273E+00  0.1818182E+00  0.1127913E-16  0.4722550E-02
    1      -43.753858    -43.753407   1.000000   1.000000
    2      -21.558608    -21.558638   1.000000   1.000000
    3      -17.295027    -17.295070   1.000000   1.000000
    4       -6.667096     -6.667153   1.000000   1.000000
    5       -5.730481     -5.730522   1.000000   1.000000
    6       -5.411644     -5.411676   1.000000   1.000000
    7       -4.159139     -4.159207   1.000000   1.000000
    8       -0.490657     -0.490715   1.000000   1.000000
    9        0.307929      0.307850   1.000000   1.000000
   10        5.333371      5.333373   0.000000   0.000000
   11        5.688202      5.688176   0.000000   0.000000
   12        7.478914      7.478880   0.000000   0.000000
   13       10.305380     10.305446   0.000000   0.000000
   14       11.147150     11.146529   0.000000   0.000000
   15       12.547475     12.549288   0.000000   0.000000
   16       13.203747     13.203884   0.000000   0.000000
 
  0.3636364E+00  0.1818182E+00  0.3055523E-16  0.4722550E-02
    1      -43.752864    -43.752413   1.000000   1.000000
    2      -21.514080    -21.514110   1.000000   1.000000
    3      -17.271807    -17.271852   1.000000   1.000000
    4       -6.521383     -6.521435   1.000000   1.000000
    5       -5.934201     -5.934249   1.000000   1.000000
    6       -5.511697     -5.511730   1.000000   1.000000
    7       -4.230485     -4.230555   1.000000   1.000000
    8       -0.749883     -0.749935   1.000000   1.000000
    9        0.106107      0.106033   1.000000   1.000000
   10        4.993357      4.993365   0.000000   0.000000
   11        5.653938      5.653915   0.000000   0.000000
   12        8.200291      8.200249   0.000000   0.000000
   13       10.527524     10.527343   0.000000   0.000000
   14       11.449391     11.449052   0.000000   0.000000
   15       12.175622     12.175596   0.000000   0.000000
   16       13.105352     13.105502   0.000000   0.000000
 
  0.4545455E+00  0.1818182E+00  0.8542936E-16  0.4722550E-02
    1      -43.751991    -43.751540   1.000000   1.000000
    2      -21.474749    -21.474779   1.000000   1.000000
    3      -17.248609    -17.248653   1.000000   1.000000
    4       -6.430975     -6.431015   1.000000   1.000000
    5       -6.068528     -6.068589   1.000000   1.000000
    6       -5.597379     -5.597416   1.000000   1.000000
    7       -4.288247     -4.288318   1.000000   1.000000
    8       -0.932984     -0.933032   1.000000   1.000000
    9       -0.134705     -0.134771   1.000000   1.000000
   10        4.681304      4.681318   0.000000   0.000000
   11        5.608342      5.608322   0.000000   0.000000
   12        8.852667      8.852667   0.000000   0.000000
   13       10.831909     10.831482   0.000000   0.000000
   14       11.352699     11.352649   0.000000   0.000000
   15       12.332290     12.332399   0.000000   0.000000
   16       13.014766     13.014864   0.000000   0.000000
 
 -0.4545455E+00  0.1818182E+00  0.5739217E-16  0.4722550E-02
    1      -43.751466    -43.751015   1.000000   1.000000
    2      -21.453354    -21.453384   1.000000   1.000000
    3      -17.232671    -17.232715   1.000000   1.000000
    4       -6.445725     -6.445758   1.000000   1.000000
    5       -6.096075     -6.096143   1.000000   1.000000
    6       -5.637889     -5.637930   1.000000   1.000000
    7       -4.294564     -4.294635   1.000000   1.000000
    8       -1.004176     -1.004223   1.000000   1.000000
    9       -0.330883     -0.330945   1.000000   1.000000
   10        4.496436      4.496454   0.000000   0.000000
   11        5.578421      5.578403   0.000000   0.000000
   12        9.155562      9.155571   0.000000   0.000000
   13       11.176192     11.176069   0.000000   0.000000
   14       11.363754     11.363734   0.000000   0.000000
   15       12.308191     12.308319   0.000000   0.000000
   16       12.967753     12.967858   0.000000   0.000000
 
 -0.3636364E+00  0.1818182E+00  0.5931415E-16  0.4722550E-02
    1      -43.751533    -43.751082   1.000000   1.000000
    2      -21.457187    -21.457217   1.000000   1.000000
    3      -17.229345    -17.229389   1.000000   1.000000
    4       -6.513291     -6.513330   1.000000   1.000000
    5       -6.046394     -6.046457   1.000000   1.000000
    6       -5.656204     -5.656245   1.000000   1.000000
    7       -4.221896     -4.221968   1.000000   1.000000
    8       -0.974523     -0.974571   1.000000   1.000000
    9       -0.404084     -0.404145   1.000000   1.000000
   10        4.485987      4.486005   0.000000   0.000000
   11        5.584877      5.584859   0.000000   0.000000
   12        9.122926      9.122930   0.000000   0.000000
   13       11.175792     11.175775   0.000000   0.000000
   14       11.558134     11.557945   0.000000   0.000000
   15       12.241439     12.241392   0.000000   0.000000
   16       12.939741     12.939732   0.000000   0.000000
 
 -0.2727273E+00  0.1818182E+00  0.5558362E-16  0.4722550E-02
    1      -43.752121    -43.751670   1.000000   1.000000
    2      -21.484887    -21.484917   1.000000   1.000000
    3      -17.239652    -17.239696   1.000000   1.000000
    4       -6.600161     -6.600204   1.000000   1.000000
    5       -5.962663     -5.962719   1.000000   1.000000
    6       -5.617109     -5.617146   1.000000   1.000000
    7       -4.107179     -4.107251   1.000000   1.000000
    8       -0.869277     -0.869326   1.000000   1.000000
    9       -0.311604     -0.311668   1.000000   1.000000
   10        4.640151      4.640167   0.000000   0.000000
   11        5.626417      5.626396   0.000000   0.000000
   12        8.752028      8.751974   0.000000   0.000000
   13       11.184633     11.184671   0.000000   0.000000
   14       11.645634     11.640550   0.000000   0.000000
   15       12.020601     12.018851   0.000000   0.000000
   16       12.951446     12.939138   0.000000   0.000000
 
 -0.1818182E+00  0.1818182E+00  0.7689581E-16  0.2361275E-02
    1      -43.753065    -43.752614   1.000000   1.000000
    2      -21.527152    -21.527184   1.000000   1.000000
    3      -17.260377    -17.260421   1.000000   1.000000
    4       -6.706237     -6.706288   1.000000   1.000000
    5       -5.865626     -5.865671   1.000000   1.000000
    6       -5.482398     -5.482434   1.000000   1.000000
    7       -4.015823     -4.015894   1.000000   1.000000
    8       -0.673734     -0.673788   1.000000   1.000000
    9       -0.111394     -0.111464   1.000000   1.000000
   10        4.901693      4.901703   0.000000   0.000000
   11        5.688441      5.688417   0.000000   0.000000
   12        8.087514      8.086898   0.000000   0.000000
   13       11.156136     11.156269   0.000000   0.000000
   14       11.525565     11.510776   0.000000   0.000000
   15       11.942179     11.942215   0.000000   0.000000
   16       13.050613     13.010914   0.000000   0.000000
 
  0.2727273E+00  0.2727273E+00  0.4735295E-16  0.2361275E-02
    1      -43.753368    -43.752917   1.000000   1.000000
    2      -21.535488    -21.535518   1.000000   1.000000
    3      -17.289233    -17.289277   1.000000   1.000000
    4       -6.569993     -6.570047   1.000000   1.000000
    5       -5.810837     -5.810883   1.000000   1.000000
    6       -5.452252     -5.452283   1.000000   1.000000
    7       -4.264751     -4.264820   1.000000   1.000000
    8       -0.704566     -0.704617   1.000000   1.000000
    9        0.383948      0.383866   1.000000   1.000000
   10        5.370658      5.370664   0.000000   0.000000
   11        5.460889      5.460865   0.000000   0.000000
   12        7.810578      7.810532   0.000000   0.000000
   13       10.223371     10.223267   0.000000   0.000000
   14       11.382208     11.381583   0.000000   0.000000
   15       12.423178     12.414484   0.000000   0.000000
   16       13.029720     13.027636   0.000000   0.000000
 
  0.3636364E+00  0.2727273E+00  0.2358121E-17  0.4722550E-02
    1      -43.752618    -43.752167   1.000000   1.000000
    2      -21.501539    -21.501570   1.000000   1.000000
    3      -17.274675    -17.274719   1.000000   1.000000
    4       -6.473311     -6.473358   1.000000   1.000000
    5       -5.884269     -5.884325   1.000000   1.000000
    6       -5.542853     -5.542885   1.000000   1.000000
    7       -4.374545     -4.374616   1.000000   1.000000
    8       -0.912166     -0.912211   1.000000   1.000000
    9        0.294945      0.294866   1.000000   1.000000
   10        5.116955      5.116956   0.000000   0.000000
   11        5.407626      5.407613   0.000000   0.000000
   12        8.391043      8.391019   0.000000   0.000000
   13       10.275272     10.275324   0.000000   0.000000
   14       11.599909     11.600047   0.000000   0.000000
   15       12.185073     12.182139   0.000000   0.000000
   16       12.870076     12.867221   0.000000   0.000000
 
  0.4545455E+00  0.2727273E+00  0.1521787E-15  0.4722550E-02
    1      -43.751851    -43.751400   1.000000   1.000000
    2      -21.467463    -21.467493   1.000000   1.000000
    3      -17.255854    -17.255898   1.000000   1.000000
    4       -6.408716     -6.408755   1.000000   1.000000
    5       -5.900186     -5.900248   1.000000   1.000000
    6       -5.673268     -5.673307   1.000000   1.000000
    7       -4.469198     -4.469267   1.000000   1.000000
    8       -1.030520     -1.030563   1.000000   1.000000
    9        0.057460      0.057388   1.000000   1.000000
   10        4.829831      4.829837   0.000000   0.000000
   11        5.353028      5.353020   0.000000   0.000000
   12        9.173236      9.173229   0.000000   0.000000
   13       10.433280     10.433278   0.000000   0.000000
   14       11.528907     11.529025   0.000000   0.000000
   15       12.083915     12.083974   0.000000   0.000000
   16       12.844207     12.844112   0.000000   0.000000
 
 -0.4545455E+00  0.2727273E+00  0.6571040E-16  0.4722550E-02
    1      -43.751308    -43.750857   1.000000   1.000000
    2      -21.444250    -21.444279   1.000000   1.000000
    3      -17.238610    -17.238654   1.000000   1.000000
    4       -6.340912     -6.340946   1.000000   1.000000
    5       -6.023146     -6.023195   1.000000   1.000000
    6       -5.703402     -5.703462   1.000000   1.000000
    7       -4.501007     -4.501076   1.000000   1.000000
    8       -1.017920     -1.017965   1.000000   1.000000
    9       -0.255325     -0.255389   1.000000   1.000000
   10        4.605387      4.605398   0.000000   0.000000
   11        5.325465      5.325459   0.000000   0.000000
   12        9.817560      9.817561   0.000000   0.000000
   13       10.771292     10.771299   0.000000   0.000000
   14       11.477717     11.477799   0.000000   0.000000
   15       11.826070     11.826132   0.000000   0.000000
   16       12.865986     12.866005   0.000000   0.000000
 
 -0.3636364E+00  0.2727273E+00  0.8844907E-16  0.4722550E-02
    1      -43.751154    -43.750703   1.000000   1.000000
    2      -21.439432    -21.439462   1.000000   1.000000
    3      -17.228462    -17.228506   1.000000   1.000000
    4       -6.349411     -6.349447   1.000000   1.000000
    5       -6.060700     -6.060742   1.000000   1.000000
    6       -5.748906     -5.748972   1.000000   1.000000
    7       -4.419737     -4.419806   1.000000   1.000000
    8       -0.874944     -0.874993   1.000000   1.000000
    9       -0.555278     -0.555334   1.000000   1.000000
   10        4.494422      4.494438   0.000000   0.000000
   11        5.366508      5.366501   0.000000   0.000000
   12        9.880807      9.880804   0.000000   0.000000
   13       11.153178     11.153115   0.000000   0.000000
   14       11.506244     11.506291   0.000000   0.000000
   15       11.781428     11.781465   0.000000   0.000000
   16       12.849670     12.849635   0.000000   0.000000
 
 -0.2727273E+00  0.2727273E+00  0.2587320E-16  0.2361275E-02
    1      -43.751464    -43.751013   1.000000   1.000000
    2      -21.454688    -21.454717   1.000000   1.000000
    3      -17.228840    -17.228884   1.000000   1.000000
    4       -6.487785     -6.487823   1.000000   1.000000
    5       -5.863618     -5.863654   1.000000   1.000000
    6       -5.861269     -5.861336   1.000000   1.000000
    7       -4.259106     -4.259177   1.000000   1.000000
    8       -0.808294     -0.808345   1.000000   1.000000
    9       -0.590293     -0.590350   1.000000   1.000000
   10        4.513320      4.513335   0.000000   0.000000
   11        5.476112      5.476100   0.000000   0.000000
   12        9.458510      9.458500   0.000000   0.000000
   13       11.101359     11.101417   0.000000   0.000000
   14       11.793675     11.793778   0.000000   0.000000
   15       11.866200     11.865489   0.000000   0.000000
   16       12.845068     12.845684   0.000000   0.000000
 
  0.3636364E+00  0.3636364E+00 -0.1999914E-16  0.2361275E-02