 running on    8 total cores
 distrk:  each k-point on    8 cores,    1 groups
 distr:  one band on    1 cores,    8 groups
 using from now: INCAR     
 vasp.6.1.2 22Jul20 (build Mar 20 2021 11:25:07) complex                        
  
 POSCAR found type information on POSCAR LiN 
 POSCAR found :  2 types and       4 ions
 scaLAPACK will be used
 -----------------------------------------------------------------------------
|                                                                             |
|           W    W    AA    RRRRR   N    N  II  N    N   GGGG   !!!           |
|           W    W   A  A   R    R  NN   N  II  NN   N  G    G  !!!           |
|           W    W  A    A  R    R  N N  N  II  N N  N  G       !!!           |
|           W WW W  AAAAAA  RRRRR   N  N N  II  N  N N  G  GGG   !            |
|           WW  WW  A    A  R   R   N   NN  II  N   NN  G    G                |
|           W    W  A    A  R    R  N    N  II  N    N   GGGG   !!!           |
|                                                                             |
|     The value NCORE = 6 specified in the INCAR file was overwritten,        |
|     because it was not compatible with the 8 processes available:           |
|     NCORE = 1                                                               |
|     was used instead, please check that this makes sense for your           |
|     machine.                                                                |
|                                                                             |
 -----------------------------------------------------------------------------

 -----------------------------------------------------------------------------
|                                                                             |
|           W    W    AA    RRRRR   N    N  II  N    N   GGGG   !!!           |
|           W    W   A  A   R    R  NN   N  II  NN   N  G    G  !!!           |
|           W    W  A    A  R    R  N N  N  II  N N  N  G       !!!           |
|           W WW W  AAAAAA  RRRRR   N  N N  II  N  N N  G  GGG   !            |
|           WW  WW  A    A  R   R   N   NN  II  N   NN  G    G                |
|           W    W  A    A  R    R  N    N  II  N    N   GGGG   !!!           |
|                                                                             |
|     For optimal performance we recommend to set                             |
|       NCORE = 4 - approx SQRT(number of cores).                             |
|     NCORE specifies how many cores store one orbital (NPAR=cpu/NCORE).      |
|     This setting can greatly improve the performance of VASP for DFT.       |
|     The default, NCORE=1 might be grossly inefficient on modern             |
|     multi-core architectures or massively parallel machines. Do your        |
|     own testing!!!!                                                         |
|     Unfortunately you need to use the default for GW and RPA                |
|     calculations (for HF NCORE is supported but not extensively tested      |
|     yet).                                                                   |
|                                                                             |
 -----------------------------------------------------------------------------

 -----------------------------------------------------------------------------
|                                                                             |
|               ----> ADVICE to this user running VASP <----                  |
|                                                                             |
|     You have a (more or less) 'small supercell' and for smaller cells       |
|     it is recommended to use the reciprocal-space projection scheme!        |
|     The real-space optimization is not efficient for small cells and it     |
|     is also less accurate ...                                               |
|     Therefore, set LREAL=.FALSE. in the INCAR file.                         |
|                                                                             |
 -----------------------------------------------------------------------------

 LDA part: xc-table for Pade appr. of Perdew
 generate k-points for:   11   11    7
 POSCAR, INCAR and KPOINTS ok, starting setup
 FFT: planning ...
 WAVECAR not read
 entering main loop
       N       E                     dE             d eps       ncg     rms          rms(c)
DAV:   1     0.792220194798E+02    0.79222E+02   -0.81664E+03 14984   0.103E+03
DAV:   2    -0.232566090932E+02   -0.10248E+03   -0.98749E+02 20328   0.242E+02
DAV:   3    -0.283260553412E+02   -0.50694E+01   -0.50505E+01 21568   0.560E+01
DAV:   4    -0.284797580120E+02   -0.15370E+00   -0.15364E+00 21000   0.854E+00
DAV:   5    -0.284813605902E+02   -0.16026E-02   -0.16026E-02 20504   0.837E-01    0.125E+01
RMM:   6    -0.274784951902E+02    0.10029E+01   -0.30607E+00 16543   0.107E+01    0.572E+00
RMM:   7    -0.274294402930E+02    0.49055E-01   -0.40816E-01 18340   0.571E+00    0.322E+00
RMM:   8    -0.274031697776E+02    0.26271E-01   -0.19961E-01 19355   0.327E+00    0.158E+00
RMM:   9    -0.274141959142E+02   -0.11026E-01   -0.39465E-02 21230   0.163E+00    0.612E-01
RMM:  10    -0.274152474674E+02   -0.10516E-02   -0.10504E-02 22705   0.763E-01    0.146E-01
RMM:  11    -0.274157303327E+02   -0.48287E-03   -0.23744E-03 23156   0.391E-01    0.766E-02
RMM:  12    -0.274160169077E+02   -0.28657E-03   -0.11198E-03 24808   0.232E-01    0.438E-02
RMM:  13    -0.274160761107E+02   -0.59203E-04   -0.39023E-04 24375   0.134E-01    0.156E-02
RMM:  14    -0.274161124335E+02   -0.36323E-04   -0.20153E-04 23693   0.930E-02    0.754E-03
RMM:  15    -0.274161234934E+02   -0.11060E-04   -0.88461E-05 21080   0.571E-02    0.402E-03
RMM:  16    -0.274161290839E+02   -0.55905E-05   -0.38765E-05 18344   0.400E-02
   1 F= -.27416129E+02 E0= -.27416129E+02  d E =0.000000E+00  mag=    -0.0000
