   14   14    1    2
  0.1316188E+02  0.9183430E-09  0.8687941E-09  0.4904530E-09  0.5000000E-15
  1.000000000000000E-004
  CAR 
 unknown system                          
     80     64     56
 
  0.0000000E+00  0.0000000E+00  0.0000000E+00  0.2915452E-02
    1      -22.162970    -22.162831   1.000000   1.000000
    2      -21.438580    -21.438454   1.000000   1.000000
    3      -20.683951    -20.683817   1.000000   1.000000
    4      -19.335466    -19.335380   1.000000   1.000000
    5      -19.326395    -19.326308   1.000000   1.000000
    6      -19.249566    -19.249465   1.000000   1.000000
    7      -17.745280    -17.745164   1.000000   1.000000
    8      -17.336755    -17.336659   1.000000   1.000000
    9      -17.279112    -17.279019   1.000000   1.000000
   10      -17.266894    -17.266800   1.000000   1.000000
   11      -12.583503    -12.583340   1.000000   1.000000
   12      -10.949746    -10.949589   1.000000   1.000000
   13       -8.880632     -8.880484   1.000000   1.000000
   14       -7.656498     -7.656358   1.000000   1.000000
   15       -7.480148     -7.480010   1.000000   1.000000
   16       -7.217831     -7.217688   1.000000   1.000000
   17       -5.491093     -5.490952   1.000000   1.000000
   18       -5.342678     -5.342532   1.000000   1.000000
   19       -4.881119     -4.880948   1.000000   1.000000
   20       -3.940830     -3.940721   1.000000   1.000000
   21       -3.908383     -3.908246   1.000000   1.000000
   22       -3.800258     -3.800107   1.000000   1.000000
   23       -3.654478     -3.654359   1.000000   1.000000
   24       -3.645308     -3.645178   1.000000   1.000000
   25       -3.188483     -3.188373   1.000000   1.000000
   26       -3.016288     -3.016189   1.000000   1.000000
   27       -2.230720     -2.230607   1.000000   1.000000
   28       -1.937833     -1.937747   1.000000   1.000000
   29       -1.764482     -1.764414   1.000000   1.000000
   30       -1.648199     -1.648110   1.000000   1.000000
   31       -1.557936     -1.557857   1.000000   1.000000
   32       -1.168951     -1.168885   1.000000   1.000000
   33       -0.529330     -0.529233   1.000000   1.000000
   34       -0.517503     -0.517395   1.000000   1.000000
   35       -0.417258     -0.417169   1.000000   1.000000
   36       -0.313890     -0.313798   1.000000   1.000000
   37       -0.272117     -0.272020   1.000000   1.000000
   38       -0.108108     -0.108029   1.000000   1.000000
   39       -0.105478     -0.105394   1.000000   1.000000
   40        0.027209      0.027286   1.000000   1.000000
   41        5.530386      5.530561   0.000003   0.000001
   42        7.285341      7.285477   0.000000   0.000000
   43        7.518416      7.518642   0.000000   0.000000
   44        7.789535      7.789837   0.000000   0.000000
   45        8.225800      8.226059   0.000000   0.000000
   46        8.720492      8.720764   0.000000   0.000000
   47        8.976676      8.976975   0.000000   0.000000
   48        9.297019      9.297301   0.000000   0.000000
   49        9.325199      9.325307   0.000000   0.000000
   50        9.580320      9.580613   0.000000   0.000000
   51       10.207149     10.207436   0.000000   0.000000
   52       10.452952     10.453185   0.000000   0.000000
   53       10.510219     10.510376   0.000000   0.000000
   54       10.918788     10.919057   0.000000   0.000000
   55       12.050564     12.050542   0.000000   0.000000
   56       12.430299     12.430101   0.000000   0.000000
 
  0.1428571E+00  0.1731657E-16  0.4609944E-14  0.2332362E-01
    1      -22.125602    -22.125464   1.000000   1.000000
    2      -21.422938    -21.422811   1.000000   1.000000
    3      -20.699522    -20.699389   1.000000   1.000000
    4      -19.433478    -19.433385   1.000000   1.000000
    5      -19.329632    -19.329545   1.000000   1.000000
    6      -19.259565    -19.259465   1.000000   1.000000
    7      -17.697371    -17.697258   1.000000   1.000000
    8      -17.340819    -17.340723   1.000000   1.000000
    9      -17.291756    -17.291663   1.000000   1.000000
   10      -17.271576    -17.271482   1.000000   1.000000
   11      -12.484538    -12.484375   1.000000   1.000000
   12      -10.884365    -10.884209   1.000000   1.000000
   13       -8.993987     -8.993838   1.000000   1.000000
   14       -7.729433     -7.729293   1.000000   1.000000
   15       -7.397092     -7.396954   1.000000   1.000000
   16       -7.196164     -7.196022   1.000000   1.000000
   17       -5.418287     -5.418145   1.000000   1.000000
   18       -5.278391     -5.278245   1.000000   1.000000
   19       -4.873986     -4.873816   1.000000   1.000000
   20       -4.099635     -4.099505   1.000000   1.000000
   21       -3.898089     -3.897954   1.000000   1.000000
   22       -3.828029     -3.827890   1.000000   1.000000
   23       -3.613493     -3.613372   1.000000   1.000000
   24       -3.561938     -3.561816   1.000000   1.000000
   25       -3.143826     -3.143716   1.000000   1.000000
   26       -3.079329     -3.079226   1.000000   1.000000
   27       -2.240216     -2.240107   1.000000   1.000000
   28       -1.984256     -1.984171   1.000000   1.000000
   29       -1.863139     -1.863060   1.000000   1.000000
   30       -1.732782     -1.732696   1.000000   1.000000
   31       -1.614441     -1.614359   1.000000   1.000000
   32       -1.215585     -1.215521   1.000000   1.000000
   33       -0.505507     -0.505402   1.000000   1.000000
   34       -0.485667     -0.485570   1.000000   1.000000
   35       -0.391513     -0.391423   1.000000   1.000000
   36       -0.317567     -0.317473   1.000000   1.000000
   37       -0.254284     -0.254189   1.000000   1.000000
   38       -0.148529     -0.148444   1.000000   1.000000
   39       -0.095959     -0.095878   1.000000   1.000000
   40       -0.002939     -0.002860   1.000000   1.000000
   41        5.752689      5.752870  -0.000000  -0.000000
   42        7.333294      7.333453   0.000000   0.000000
   43        7.716921      7.717125   0.000000   0.000000
   44        7.907838      7.908134   0.000000   0.000000
   45        8.302247      8.302505   0.000000   0.000000
   46        8.715529      8.715808   0.000000   0.000000
   47        8.985754      8.986043   0.000000   0.000000
   48        9.169688      9.169904   0.000000   0.000000
   49        9.388965      9.389187   0.000000   0.000000
   50        9.610541      9.610798   0.000000   0.000000
   51       10.092584     10.092855   0.000000   0.000000
   52       10.462897     10.463119   0.000000   0.000000
   53       10.585389     10.585569   0.000000   0.000000
   54       10.880166     10.880413   0.000000   0.000000
   55       12.021392     12.021376   0.000000   0.000000
   56       12.338107     12.337906   0.000000   0.000000
 
  0.2857143E+00  0.2641889E-16 -0.5051719E-14  0.2332362E-01
    1      -22.035583    -22.035445   1.000000   1.000000
    2      -21.371532    -21.371404   1.000000   1.000000
    3      -20.762119    -20.761990   1.000000   1.000000
    4      -19.642792    -19.642689   1.000000   1.000000
    5      -19.330486    -19.330400   1.000000   1.000000
    6      -19.269327    -19.269228   1.000000   1.000000
    7      -17.618506    -17.618399   1.000000   1.000000
    8      -17.348470    -17.348375   1.000000   1.000000
    9      -17.318952    -17.318857   1.000000   1.000000
   10      -17.279667    -17.279573   1.000000   1.000000
   11      -12.259831    -12.259669   1.000000   1.000000
   12      -10.687372    -10.687218   1.000000   1.000000
   13       -9.293457     -9.293309   1.000000   1.000000
   14       -7.832955     -7.832814   1.000000   1.000000
   15       -7.294918     -7.294782   1.000000   1.000000
   16       -7.118083     -7.117943   1.000000   1.000000
   17       -5.240641     -5.240498   1.000000   1.000000
   18       -5.111115     -5.110968   1.000000   1.000000
   19       -4.850277     -4.850113   1.000000   1.000000
   20       -4.268294     -4.268153   1.000000   1.000000
   21       -4.079027     -4.078886   1.000000   1.000000
   22       -3.880854     -3.880719   1.000000   1.000000
   23       -3.546527     -3.546407   1.000000   1.000000
   24       -3.424109     -3.423995   1.000000   1.000000
   25       -3.252992     -3.252882   1.000000   1.000000
   26       -2.960744     -2.960638   1.000000   1.000000
   27       -2.324715     -2.324615   1.000000   1.000000
   28       -2.155359     -2.155265   1.000000   1.000000
   29       -2.017809     -2.017724   1.000000   1.000000
   30       -1.900149     -1.900064   1.000000   1.000000
   31       -1.711713     -1.711630   1.000000   1.000000
   32       -1.305284     -1.305220   1.000000   1.000000
   33       -0.475547     -0.475447   1.000000   1.000000
   34       -0.437065     -0.436964   1.000000   1.000000
   35       -0.352725     -0.352636   1.000000   1.000000
   36       -0.318985     -0.318892   1.000000   1.000000
   37       -0.259875     -0.259784   1.000000   1.000000
   38       -0.145635     -0.145544   1.000000   1.000000
   39       -0.085173     -0.085090   1.000000   1.000000
   40       -0.041082     -0.041001   1.000000   1.000000
   41        6.195494      6.195700   0.000000   0.000000
   42        7.571290      7.571458   0.000000   0.000000
   43        8.056515      8.056739   0.000000   0.000000
   44        8.168045      8.168324   0.000000   0.000000
   45        8.467725      8.467986   0.000000   0.000000
   46        8.715945      8.716222   0.000000   0.000000
   47        9.040495      9.040753   0.000000   0.000000
   48        9.127421      9.127673   0.000000   0.000000
   49        9.455330      9.455586   0.000000   0.000000
   50        9.683346      9.683581   0.000000   0.000000
   51        9.853323      9.853555   0.000000   0.000000
   52       10.430339     10.430527   0.000000   0.000000
   53       10.622311     10.622554   0.000000   0.000000
   54       10.801022     10.801175   0.000000   0.000000
   55       11.845431     11.845433   0.000000   0.000000
   56       12.157924     12.157744   0.000000   0.000000
 
  0.4285714E+00 -0.2606803E-16 -0.4340858E-15  0.2332362E-01
    1      -21.957375    -21.957238   1.000000   1.000000
    2      -21.291699    -21.291567   1.000000   1.000000
    3      -20.867184    -20.867061   1.000000   1.000000
    4      -19.784521    -19.784411   1.000000   1.000000
    5      -19.331081    -19.330994   1.000000   1.000000
    6      -19.275722    -19.275624   1.000000   1.000000
    7      -17.578717    -17.578611   1.000000   1.000000
    8      -17.364668    -17.364573   1.000000   1.000000
    9      -17.317551    -17.317456   1.000000   1.000000
   10      -17.291972    -17.291878   1.000000   1.000000
   11      -12.079597    -12.079436   1.000000   1.000000
   12      -10.402795    -10.402643   1.000000   1.000000
   13       -9.653431     -9.653282   1.000000   1.000000
   14       -7.898024     -7.897883   1.000000   1.000000
   15       -7.243863     -7.243728   1.000000   1.000000
   16       -7.037647     -7.037509   1.000000   1.000000
   17       -5.049547     -5.049399   1.000000   1.000000
   18       -4.980949     -4.980798   1.000000   1.000000
   19       -4.767625     -4.767477   1.000000   1.000000
   20       -4.450022     -4.449874   1.000000   1.000000
   21       -4.209494     -4.209347   1.000000   1.000000
   22       -3.964094     -3.963964   1.000000   1.000000
   23       -3.608311     -3.608189   1.000000   1.000000
   24       -3.420346     -3.420227   1.000000   1.000000
   25       -3.190887     -3.190780   1.000000   1.000000
   26       -2.785019     -2.784912   1.000000   1.000000
   27       -2.477902     -2.477805   1.000000   1.000000
   28       -2.294590     -2.294501   1.000000   1.000000
   29       -2.154937     -2.154846   1.000000   1.000000
   30       -1.935686     -1.935600   1.000000   1.000000
   31       -1.831805     -1.831720   1.000000   1.000000
   32       -1.356345     -1.356279   1.000000   1.000000
   33       -0.531465     -0.531365   1.000000   1.000000
   34       -0.397756     -0.397652   1.000000   1.000000
   35       -0.356463     -0.356377   1.000000   1.000000
   36       -0.314991     -0.314898   1.000000   1.000000
   37       -0.207093     -0.206999   1.000000   1.000000
   38       -0.154358     -0.154269   1.000000   1.000000
   39       -0.062792     -0.062705   1.000000   1.000000
   40       -0.021360     -0.021279   1.000000   1.000000
   41        6.480176      6.480401   0.000000   0.000000
   42        7.931161      7.931375   0.000000   0.000000
   43        8.191604      8.191861   0.000000   0.000000
   44        8.325252      8.325504   0.000000   0.000000
   45        8.555873      8.556152   0.000000   0.000000
   46        8.868412      8.868646   0.000000   0.000000
   47        9.028824      9.029090   0.000000   0.000000
   48        9.266048      9.266306   0.000000   0.000000
   49        9.589629      9.589886   0.000000   0.000000
   50        9.637872      9.638055   0.000000   0.000000
   51        9.788637      9.788886   0.000000   0.000000
   52       10.370271     10.370432   0.000000   0.000000
   53       10.485551     10.485772   0.000000   0.000000
   54       10.833470     10.833615   0.000000   0.000000
   55       11.407441     11.407411   0.000000   0.000000
   56       12.048204     12.048042   0.000000   0.000000
 
  0.1428571E+00  0.1428571E+00  0.5678952E-17  0.5830904E-02
    1      -22.141750    -22.141612   1.000000   1.000000
    2      -21.516779    -21.516650   1.000000   1.000000
    3      -20.579391    -20.579259   1.000000   1.000000
    4      -19.343568    -19.343476   1.000000   1.000000
    5      -19.326731    -19.326645   1.000000   1.000000
    6      -19.312806    -19.312707   1.000000   1.000000
    7      -17.711703    -17.711589   1.000000   1.000000
    8      -17.352928    -17.352831   1.000000   1.000000
    9      -17.274969    -17.274876   1.000000   1.000000
   10      -17.266583    -17.266490   1.000000   1.000000
   11      -12.522457    -12.522294   1.000000   1.000000
   12      -11.075260    -11.075103   1.000000   1.000000
   13       -8.768349     -8.768201   1.000000   1.000000
   14       -7.685009     -7.684869   1.000000   1.000000
   15       -7.470324     -7.470186   1.000000   1.000000
   16       -7.239806     -7.239664   1.000000   1.000000
   17       -5.496486     -5.496344   1.000000   1.000000
   18       -5.372818     -5.372671   1.000000   1.000000
   19       -4.835506     -4.835336   1.000000   1.000000
   20       -3.929534     -3.929386   1.000000   1.000000
   21       -3.907140     -3.907030   1.000000   1.000000
   22       -3.870509     -3.870374   1.000000   1.000000
   23       -3.640409     -3.640279   1.000000   1.000000
   24       -3.626908     -3.626787   1.000000   1.000000
   25       -3.140175     -3.140065   1.000000   1.000000
   26       -3.023850     -3.023749   1.000000   1.000000
   27       -2.237638     -2.237527   1.000000   1.000000
   28       -2.003651     -2.003566   1.000000   1.000000
   29       -1.707419     -1.707347   1.000000   1.000000
   30       -1.638264     -1.638176   1.000000   1.000000
   31       -1.555668     -1.555588   1.000000   1.000000
   32       -1.184688     -1.184623   1.000000   1.000000
   33       -0.543431     -0.543333   1.000000   1.000000
   34       -0.516202     -0.516095   1.000000   1.000000
   35       -0.430104     -0.430014   1.000000   1.000000
   36       -0.363589     -0.363492   1.000000   1.000000
   37       -0.237986     -0.237894   1.000000   1.000000
   38       -0.111154     -0.111075   1.000000   1.000000
   39       -0.090155     -0.090072   1.000000   1.000000
   40        0.024700      0.024778   1.000000   1.000000
   41        5.628321      5.628494   0.000000   0.000000
   42        7.321816      7.321962   0.000000   0.000000
   43        7.417914      7.418127   0.000000   0.000000
   44        7.811367      7.811666   0.000000   0.000000
   45        8.279948      8.280199   0.000000   0.000000
   46        8.670224      8.670486   0.000000   0.000000
   47        8.970028      8.970328   0.000000   0.000000
   48        9.191380      9.191565   0.000000   0.000000
   49        9.282497      9.282779   0.000000   0.000000
   50        9.709047      9.709284   0.000000   0.000000
   51       10.140803     10.141071   0.000000   0.000000
   52       10.323851     10.324015   0.000000   0.000000
   53       10.533193     10.533442   0.000000   0.000000
   54       10.908578     10.908839   0.000000   0.000000
   55       12.289369     12.289350   0.000000   0.000000
   56       12.476089     12.475901   0.000000   0.000000
 
  0.2857143E+00  0.1428571E+00  0.1070141E-14  0.2332362E-01
    1      -22.084172    -22.084034   1.000000   1.000000
    2      -21.559406    -21.559275   1.000000   1.000000
    3      -20.515171    -20.515043   1.000000   1.000000
    4      -19.520143    -19.520042   1.000000   1.000000
    5      -19.329806    -19.329719   1.000000   1.000000
    6      -19.295725    -19.295630   1.000000   1.000000
    7      -17.645849    -17.645740   1.000000   1.000000
    8      -17.369974    -17.369877   1.000000   1.000000
    9      -17.285558    -17.285464   1.000000   1.000000
   10      -17.270067    -17.269974   1.000000   1.000000
   11      -12.367235    -12.367073   1.000000   1.000000
   12      -11.120787    -11.120630   1.000000   1.000000
   13       -8.786639     -8.786492   1.000000   1.000000
   14       -7.795439     -7.795298   1.000000   1.000000
   15       -7.387816     -7.387678   1.000000   1.000000
   16       -7.214123     -7.213982   1.000000   1.000000
   17       -5.428026     -5.427882   1.000000   1.000000
   18       -5.328560     -5.328413   1.000000   1.000000
   19       -4.789765     -4.789599   1.000000   1.000000
   20       -4.110153     -4.110009   1.000000   1.000000
   21       -3.983460     -3.983325   1.000000   1.000000
   22       -3.805282     -3.805157   1.000000   1.000000
   23       -3.594632     -3.594511   1.000000   1.000000
   24       -3.550933     -3.550814   1.000000   1.000000
   25       -3.141977     -3.141866   1.000000   1.000000
   26       -3.008287     -3.008184   1.000000   1.000000
   27       -2.270782     -2.270675   1.000000   1.000000
   28       -2.104022     -2.103933   1.000000   1.000000
   29       -1.775792     -1.775708   1.000000   1.000000
   30       -1.694746     -1.694665   1.000000   1.000000
   31       -1.609185     -1.609104   1.000000   1.000000
   32       -1.248439     -1.248375   1.000000   1.000000
   33       -0.521383     -0.521283   1.000000   1.000000
   34       -0.492029     -0.491925   1.000000   1.000000
   35       -0.407850     -0.407758   1.000000   1.000000
   36       -0.375543     -0.375447   1.000000   1.000000
   37       -0.214701     -0.214609   1.000000   1.000000
   38       -0.136090     -0.136006   1.000000   1.000000
   39       -0.088851     -0.088769   1.000000   1.000000
   40       -0.006211     -0.006132   1.000000   1.000000
   41        5.928973      5.929152   0.000000   0.000000
   42        7.313895      7.314078   0.000000   0.000000
   43        7.612067      7.612244   0.000000   0.000000
   44        7.948824      7.949116   0.000000   0.000000
   45        8.405224      8.405467   0.000000   0.000000
   46        8.641443      8.641715   0.000000   0.000000
   47        8.954644      8.954933   0.000000   0.000000
   48        9.048593      9.048821   0.000000   0.000000
   49        9.326009      9.326274   0.000000   0.000000
   50        9.748110      9.748328   0.000000   0.000000
   51        9.980213      9.980454   0.000000   0.000000
   52       10.285778     10.285977   0.000000   0.000000
   53       10.579879     10.580120   0.000000   0.000000
   54       10.870872     10.871115   0.000000   0.000000
   55       12.320974     12.320859   0.000000   0.000000
   56       12.538514     12.538327   0.000000   0.000000
 
  0.4285714E+00  0.1428571E+00 -0.5038054E-14  0.2332362E-01
    1      -21.985776    -21.985639   1.000000   1.000000
    2      -21.531402    -21.531270   1.000000   1.000000
    3      -20.557182    -20.557058   1.000000   1.000000
    4      -19.741459    -19.741351   1.000000   1.000000
    5      -19.330514    -19.330427   1.000000   1.000000
    6      -19.288439    -19.288342   1.000000   1.000000
    7      -17.578369    -17.578264   1.000000   1.000000
    8      -17.376903    -17.376807   1.000000   1.000000
    9      -17.314284    -17.314190   1.000000   1.000000
   10      -17.276355    -17.276262   1.000000   1.000000
   11      -12.126393    -12.126232   1.000000   1.000000
   12      -10.985418    -10.985263   1.000000   1.000000
   13       -9.043130     -9.042982   1.000000   1.000000
   14       -7.908481     -7.908339   1.000000   1.000000
   15       -7.308718     -7.308581   1.000000   1.000000
   16       -7.099940     -7.099802   1.000000   1.000000
   17       -5.257594     -5.257448   1.000000   1.000000
   18       -5.159725     -5.159578   1.000000   1.000000
   19       -4.739956     -4.739796   1.000000   1.000000
   20       -4.301399     -4.301251   1.000000   1.000000
   21       -4.148099     -4.147960   1.000000   1.000000
   22       -3.838336     -3.838209   1.000000   1.000000
   23       -3.557502     -3.557384   1.000000   1.000000
   24       -3.473987     -3.473869   1.000000   1.000000
   25       -3.172998     -3.172888   1.000000   1.000000
   26       -2.883662     -2.883559   1.000000   1.000000
   27       -2.451320     -2.451217   1.000000   1.000000
   28       -2.183510     -2.183413   1.000000   1.000000
   29       -1.985450     -1.985365   1.000000   1.000000
   30       -1.857464     -1.857379   1.000000   1.000000
   31       -1.694257     -1.694175   1.000000   1.000000
   32       -1.331859     -1.331794   1.000000   1.000000
   33       -0.510540     -0.510443   1.000000   1.000000
   34       -0.436253     -0.436149   1.000000   1.000000
   35       -0.362260     -0.362168   1.000000   1.000000
   36       -0.304189     -0.304098   1.000000   1.000000
   37       -0.266493     -0.266402   1.000000   1.000000
   38       -0.146458     -0.146367   1.000000   1.000000
   39       -0.082561     -0.082479   1.000000   1.000000
   40       -0.031568     -0.031487   1.000000   1.000000
   41        6.370283      6.370488   0.000000   0.000000
   42        7.519904      7.520082   0.000000   0.000000
   43        7.993653      7.993866   0.000000   0.000000
   44        8.224553      8.224832   0.000000   0.000000
   45        8.510620      8.510891   0.000000   0.000000
   46        8.714386      8.714632   0.000000   0.000000
   47        8.920453      8.920717   0.000000   0.000000
   48        9.088725      9.088981   0.000000   0.000000
   49        9.418131      9.418383   0.000000   0.000000
   50        9.692152      9.692345   0.000000   0.000000
   51        9.815014      9.815253   0.000000   0.000000
   52       10.286118     10.286339   0.000000   0.000000
   53       10.559754     10.559966   0.000000   0.000000
   54       10.781258     10.781448   0.000000   0.000000
   55       11.981441     11.981331   0.000000   0.000000
   56       12.399642     12.399517   0.000000   0.000000
 
 -0.4285714E+00  0.1428571E+00 -0.4218642E-14  0.2332362E-01
    1      -21.936406    -21.936269   1.000000   1.000000
    2      -21.384434    -21.384301   1.000000   1.000000
    3      -20.760379    -20.760258   1.000000   1.000000
    4      -19.820517    -19.820405   1.000000   1.000000
    5      -19.331030    -19.330943   1.000000   1.000000
    6      -19.281772    -19.281674   1.000000   1.000000
    7      -17.566279    -17.566175   1.000000   1.000000
    8      -17.371067    -17.370972   1.000000   1.000000
    9      -17.320894    -17.320799   1.000000   1.000000
   10      -17.288716    -17.288623   1.000000   1.000000
   11      -12.026521    -12.026360   1.000000   1.000000
   12      -10.591680    -10.591527   1.000000   1.000000
   13       -9.486848     -9.486700   1.000000   1.000000
   14       -7.926430     -7.926289   1.000000   1.000000
   15       -7.252346     -7.252211   1.000000   1.000000
   16       -7.025711     -7.025574   1.000000   1.000000
   17       -5.068397     -5.068245   1.000000   1.000000
   18       -4.995604     -4.995459   1.000000   1.000000
   19       -4.687334     -4.687185   1.000000   1.000000
   20       -4.486912     -4.486761   1.000000   1.000000
   21       -4.243109     -4.242961   1.000000   1.000000
   22       -3.949925     -3.949799   1.000000   1.000000
   23       -3.608075     -3.607952   1.000000   1.000000
   24       -3.438592     -3.438472   1.000000   1.000000
   25       -3.151192     -3.151087   1.000000   1.000000
   26       -2.741986     -2.741880   1.000000   1.000000
   27       -2.570539     -2.570441   1.000000   1.000000
   28       -2.285000     -2.284907   1.000000   1.000000
   29       -2.121872     -2.121783   1.000000   1.000000
   30       -1.956812     -1.956727   1.000000   1.000000
   31       -1.812363     -1.812278   1.000000   1.000000
   32       -1.363399     -1.363333   1.000000   1.000000
   33       -0.548489     -0.548390   1.000000   1.000000
   34       -0.390106     -0.390003   1.000000   1.000000
   35       -0.346140     -0.346053   1.000000   1.000000
   36       -0.312638     -0.312546   1.000000   1.000000
   37       -0.213928     -0.213833   1.000000   1.000000
   38       -0.170775     -0.170686   1.000000   1.000000
   39       -0.053858     -0.053772   1.000000   1.000000
   40       -0.017532     -0.017451   1.000000   1.000000
   41        6.543101      6.543326   0.000000   0.000000
   42        7.888752      7.888974   0.000000   0.000000
   43        8.239490      8.239754   0.000000   0.000000
   44        8.356320      8.356561   0.000000   0.000000
   45        8.501895      8.502167   0.000000   0.000000
   46        8.799962      8.800217   0.000000   0.000000
   47        9.116883      9.117126   0.000000   0.000000
   48        9.260465      9.260729   0.000000   0.000000
   49        9.520873      9.521068   0.000000   0.000000
   50        9.581600      9.581816   0.000000   0.000000
   51        9.856471      9.856716   0.000000   0.000000
   52       10.258469     10.258710   0.000000   0.000000
   53       10.481696     10.481855   0.000000   0.000000
   54       10.776025     10.776153   0.000000   0.000000
   55       11.502779     11.502766   0.000000   0.000000
   56       12.110153     12.109940   0.000000   0.000000
 
 -0.2857143E+00  0.1428571E+00  0.5223908E-15  0.2332362E-01
    1      -21.972197    -21.972060   1.000000   1.000000
    2      -21.168230    -21.168099   1.000000   1.000000
    3      -21.001170    -21.001045   1.000000   1.000000
    4      -19.758577    -19.758468   1.000000   1.000000
    5      -19.331030    -19.330943   1.000000   1.000000
    6      -19.270495    -19.270395   1.000000   1.000000
    7      -17.588137    -17.588031   1.000000   1.000000
    8      -17.361322    -17.361227   1.000000   1.000000
    9      -17.310707    -17.310613   1.000000   1.000000
   10      -17.297474    -17.297380   1.000000   1.000000
   11      -12.117998    -12.117837   1.000000   1.000000
   12      -10.152972    -10.152821   1.000000   1.000000
   13       -9.887750     -9.887601   1.000000   1.000000
   14       -7.877998     -7.877857   1.000000   1.000000
   15       -7.232884     -7.232749   1.000000   1.000000
   16       -7.050230     -7.050091   1.000000   1.000000
   17       -5.037271     -5.037127   1.000000   1.000000
   18       -4.954359     -4.954200   1.000000   1.000000
   19       -4.828036     -4.827891   1.000000   1.000000
   20       -4.445035     -4.444887   1.000000   1.000000
   21       -4.145719     -4.145570   1.000000   1.000000
   22       -4.023886     -4.023758   1.000000   1.000000
   23       -3.538595     -3.538474   1.000000   1.000000
   24       -3.453767     -3.453648   1.000000   1.000000
   25       -3.222659     -3.222551   1.000000   1.000000
   26       -2.812227     -2.812120   1.000000   1.000000
   27       -2.422207     -2.422114   1.000000   1.000000
   28       -2.263732     -2.263641   1.000000   1.000000
   29       -2.202440     -2.202350   1.000000   1.000000
   30       -1.922016     -1.921928   1.000000   1.000000
   31       -1.850110     -1.850026   1.000000   1.000000
   32       -1.353678     -1.353613   1.000000   1.000000
   33       -0.508546     -0.508447   1.000000   1.000000
   34       -0.410211     -0.410110   1.000000   1.000000
   35       -0.368295     -0.368204   1.000000   1.000000
   36       -0.319899     -0.319809   1.000000   1.000000
   37       -0.184928     -0.184833   1.000000   1.000000
   38       -0.153417     -0.153329   1.000000   1.000000
   39       -0.068284     -0.068198   1.000000   1.000000
   40       -0.025915     -0.025833   1.000000   1.000000
   41        6.436307      6.436532   0.000000   0.000000
   42        7.963142      7.963344   0.000000   0.000000
   43        8.120592      8.120852   0.000000   0.000000
   44        8.376410      8.376661   0.000000   0.000000
   45        8.541378      8.541653   0.000000   0.000000
   46        8.759967      8.760242   0.000000   0.000000
   47        9.189761      9.189998   0.000000   0.000000
   48        9.318613      9.318867   0.000000   0.000000
   49        9.581112      9.581363   0.000000   0.000000
   50        9.685719      9.685960   0.000000   0.000000
   51        9.764269      9.764498   0.000000   0.000000
   52       10.245713     10.245885   0.000000   0.000000
   53       10.547132     10.547297   0.000000   0.000000
   54       11.044503     11.044662   0.000000   0.000000
   55       11.261600     11.261668   0.000000   0.000000
   56       11.958612     11.958323   0.000000   0.000000
 