 running on   24 total cores
 distrk:  each k-point on   24 cores,    1 groups
 distr:  one band on    6 cores,    4 groups
 using from now: INCAR     
 vasp.6.1.2 22Jul20 (build Mar 31 2021 18:09:49) complex                        
  
 POSCAR found type information on POSCAR LiO 
 POSCAR found :  2 types and       3 ions
 scaLAPACK will be used
 -----------------------------------------------------------------------------
|                                                                             |
|               ----> ADVICE to this user running VASP <----                  |
|                                                                             |
|     You have a (more or less) 'small supercell' and for smaller cells       |
|     it is recommended to use the reciprocal-space projection scheme!        |
|     The real-space optimization is not efficient for small cells and it     |
|     is also less accurate ...                                               |
|     Therefore, set LREAL=.FALSE. in the INCAR file.                         |
|                                                                             |
 -----------------------------------------------------------------------------

 LDA part: xc-table for Pade appr. of Perdew
 generate k-points for:   12   12   12
 POSCAR, INCAR and KPOINTS ok, starting setup
 FFT: planning ...
 WAVECAR not read
 entering main loop
       N       E                     dE             d eps       ncg     rms          rms(c)
DAV:   1     0.452421067511E+02    0.45242E+02   -0.56503E+03 22896   0.103E+03
DAV:   2    -0.958666319996E+01   -0.54829E+02   -0.52820E+02 27416   0.227E+02
DAV:   3    -0.152760124066E+02   -0.56893E+01   -0.56463E+01 43140   0.538E+01
DAV:   4    -0.153228345568E+02   -0.46822E-01   -0.46813E-01 26348   0.651E+00
DAV:   5    -0.153232188182E+02   -0.38426E-03   -0.38425E-03 31808   0.448E-01    0.116E+01
RMM:   6    -0.141836071574E+02    0.11396E+01   -0.35585E+00 25024   0.125E+01    0.500E+00
RMM:   7    -0.142904701067E+02   -0.10686E+00   -0.12454E-01 28527   0.295E+00    0.208E+00
RMM:   8    -0.142934308008E+02   -0.29607E-02   -0.51616E-02 32547   0.224E+00    0.116E+00
RMM:   9    -0.143058456947E+02   -0.12415E-01   -0.31231E-02 32837   0.199E+00    0.248E-01
RMM:  10    -0.143069417240E+02   -0.10960E-02   -0.95169E-03 37703   0.742E-01    0.143E-01
RMM:  11    -0.143079215339E+02   -0.97981E-03   -0.55822E-03 35849   0.589E-01    0.171E-01
RMM:  12    -0.143077607129E+02    0.16082E-03   -0.17050E-03 36627   0.338E-01    0.771E-02
RMM:  13    -0.143077701863E+02   -0.94734E-05   -0.81456E-04 36853   0.229E-01    0.202E-02
RMM:  14    -0.143078137191E+02   -0.43533E-04   -0.35288E-04 36153   0.129E-01    0.293E-02
RMM:  15    -0.143078334530E+02   -0.19734E-04   -0.13230E-04 33182   0.825E-02    0.301E-02
RMM:  16    -0.143078365534E+02   -0.31004E-05   -0.59851E-05 30502   0.589E-02
   1 F= -.14307837E+02 E0= -.14307837E+02  d E =0.000000E+00  mag=    -0.0000
