 running on   12 total cores
 distrk:  each k-point on   12 cores,    1 groups
 distr:  one band on    6 cores,    2 groups
 using from now: INCAR     
 vasp.6.1.2 22Jul20 (build Mar 20 2021 11:25:07) complex                        
  
 POSCAR found type information on POSCAR LiO 
 POSCAR found :  2 types and       9 ions
 scaLAPACK will be used
 LDA part: xc-table for Pade appr. of Perdew
 generate k-points for:    8    7    7
 POSCAR, INCAR and KPOINTS ok, starting setup
 FFT: planning ...
 WAVECAR not read
 entering main loop
       N       E                     dE             d eps       ncg     rms          rms(c)
DAV:   1     0.367038437586E+03    0.36704E+03   -0.28197E+04 26808   0.147E+03
DAV:   2    -0.183165971100E+02   -0.38536E+03   -0.37238E+03 34600   0.355E+02
DAV:   3    -0.432079421174E+02   -0.24891E+02   -0.24637E+02 39272   0.913E+01
DAV:   4    -0.441276821439E+02   -0.91974E+00   -0.91513E+00 45224   0.125E+01
DAV:   5    -0.442018094680E+02   -0.74127E-01   -0.74121E-01 35978   0.177E+00    0.147E+01
RMM:   6    -0.448250503099E+02   -0.62324E+00   -0.35907E+00 30860   0.999E+00    0.128E+01
RMM:   7    -0.439161589028E+02    0.90889E+00   -0.13584E+00 30599   0.630E+00    0.708E+00
RMM:   8    -0.437649152445E+02    0.15124E+00   -0.67086E-01 30714   0.461E+00    0.560E+00
RMM:   9    -0.435632124857E+02    0.20170E+00   -0.29021E-01 31275   0.306E+00    0.296E+00
RMM:  10    -0.435810094686E+02   -0.17797E-01   -0.10248E-01 32102   0.188E+00    0.215E+00
RMM:  11    -0.435606728088E+02    0.20337E-01   -0.30284E-02 34585   0.102E+00    0.868E-01
RMM:  12    -0.435654922130E+02   -0.48194E-02   -0.18047E-02 34237   0.869E-01    0.350E-01
RMM:  13    -0.435685475048E+02   -0.30553E-02   -0.57793E-03 39249   0.473E-01    0.240E-01
WARNING in EDDRMM: call to ZHEGV failed, returncode =   8  4      4
RMM:  14    -0.435705211378E+02   -0.19736E-02   -0.29535E-03 39513   0.325E-01    0.207E-01
RMM:  15    -0.435722533524E+02   -0.17322E-02   -0.22013E-03 39553   0.280E-01    0.200E-01
RMM:  16    -0.435738314163E+02   -0.15781E-02   -0.18016E-03 39262   0.253E-01    0.196E-01
RMM:  17    -0.435752294727E+02   -0.13981E-02   -0.13757E-03 39078   0.221E-01    0.193E-01
WARNING in EDDRMM: call to ZHEGV failed, returncode =   8  4     17
RMM:  18    -0.435782617976E+02   -0.30323E-02   -0.67969E-03 48525   0.481E-01    0.183E-01
RMM:  19    -0.435810612605E+02   -0.27995E-02   -0.22201E-02 51099   0.876E-01    0.141E-01
RMM:  20    -0.435831706517E+02   -0.21094E-02   -0.99669E-04 38249   0.294E-01    0.789E-02
RMM:  21    -0.435813189849E+02    0.18517E-02   -0.15032E-02 50899   0.703E-01    0.193E-01
RMM:  22    -0.435823931035E+02   -0.10741E-02   -0.18167E-02 50237   0.881E-01    0.112E-01
RMM:  23    -0.435835152471E+02   -0.11221E-02   -0.59827E-04 33601   0.220E-01    0.571E-02
WARNING in EDDRMM: call to ZHEGV failed, returncode =   6  3     15
RMM:  24    -0.435835121499E+02    0.30972E-05   -0.60861E-05 34928   0.596E-02
   1 F= -.43583512E+02 E0= -.43583512E+02  d E =0.000000E+00  mag=     0.4356
 -----------------------------------------------------------------------------
|                                                                             |
|           W    W    AA    RRRRR   N    N  II  N    N   GGGG   !!!           |
|           W    W   A  A   R    R  NN   N  II  NN   N  G    G  !!!           |
|           W    W  A    A  R    R  N N  N  II  N N  N  G       !!!           |
|           W WW W  AAAAAA  RRRRR   N  N N  II  N  N N  G  GGG   !            |
|           WW  WW  A    A  R   R   N   NN  II  N   NN  G    G                |
|           W    W  A    A  R    R  N    N  II  N    N   GGGG   !!!           |
|                                                                             |
|     Tetrahedron method does not include variations of the Fermi             |
|     occupations, so forces and stress will be inaccurate. We suggest        |
|     using a different smearing scheme ISMEAR = 1 or 2 for metals in         |
|     relaxations.                                                            |
|                                                                             |
 -----------------------------------------------------------------------------

