   16   16    1    2
  0.1096946E+02  0.5365468E-09  0.5296402E-09  0.6176136E-09  0.5000000E-15
  1.000000000000000E-004
  CAR 
 unknown system                          
     76     48     52
 
  0.0000000E+00  0.0000000E+00  0.0000000E+00  0.5555556E-02
    1      -42.134713    -42.134476   1.000000   1.000000
    2      -42.134376    -42.134138   1.000000   1.000000
    3      -41.809460    -41.809283   1.000000   1.000000
    4      -41.805570    -41.805393   1.000000   1.000000
    5      -41.802091    -41.801913   1.000000   1.000000
    6      -41.798269    -41.798091   1.000000   1.000000
    7      -18.594165    -18.594171   1.000000   1.000000
    8      -18.439133    -18.439142   1.000000   1.000000
    9      -16.360546    -16.360563   1.000000   1.000000
   10      -16.325050    -16.325062   1.000000   1.000000
   11      -16.294206    -16.294219   1.000000   1.000000
   12      -16.286003    -16.286022   1.000000   1.000000
   13      -15.773825    -15.773838   1.000000   1.000000
   14      -15.666102    -15.666117   1.000000   1.000000
   15       -6.288191     -6.288183   1.000000   1.000000
   16       -6.191309     -6.191308   1.000000   1.000000
   17       -3.934083     -3.934072   1.000000   1.000000
   18       -3.923230     -3.923224   1.000000   1.000000
   19       -3.778092     -3.778085   1.000000   1.000000
   20       -3.595859     -3.595858   1.000000   1.000000
   21       -3.567726     -3.567725   1.000000   1.000000
   22       -3.448890     -3.448894   1.000000   1.000000
   23       -1.642085     -1.642076   1.000000   1.000000
   24       -1.601852     -1.601844   1.000000   1.000000
   25       -1.403700     -1.403690   1.000000   1.000000
   26       -1.308792     -1.308786   1.000000   1.000000
   27       -1.131943     -1.131946   1.000000   1.000000
   28       -1.083264     -1.083254   1.000000   1.000000
   29       -0.851464     -0.851456   1.000000   1.000000
   30       -0.448031     -0.448035   1.000000   1.000000
   31       -0.412685     -0.412686   1.000000   1.000000
   32       -0.314663     -0.314667   1.000000   1.000000
   33        0.141515      0.141531   1.000000   1.000000
   34        0.173042      0.173055   1.000000   1.000000
   35        0.295767      0.295767   1.000000   1.000000
   36        0.376662      0.376665   1.000000   1.000000
   37        0.472390      0.472395   1.000000   1.000000
   38        0.664785      0.664786   1.000000   1.000000
   39        5.772597      5.772663   0.000000   0.000000
   40        8.109310      8.109352   0.000000   0.000000
   41        8.651356      8.651395   0.000000   0.000000
   42        8.802283      8.802078   0.000000   0.000000
   43        9.306815      9.306877   0.000000   0.000000
   44        9.358297      9.358329   0.000000   0.000000
   45        9.579469      9.579423   0.000000   0.000000
   46        9.975479      9.975515   0.000000   0.000000
   47       10.716324     10.716316   0.000000   0.000000
   48       10.792136     10.792621   0.000000   0.000000
   49       11.134989     11.134962   0.000000   0.000000
   50       11.802633     11.780630   0.000000   0.000000
   51       11.841363     11.842313   0.000000   0.000000
   52       12.576932     12.761297   0.000000   0.000000
 
  0.1666667E+00  0.0000000E+00  0.0000000E+00  0.1111111E-01
    1      -42.134694    -42.134457   1.000000   1.000000
    2      -42.134411    -42.134174   1.000000   1.000000
    3      -41.809229    -41.809052   1.000000   1.000000
    4      -41.805852    -41.805675   1.000000   1.000000
    5      -41.801866    -41.801688   1.000000   1.000000
    6      -41.798511    -41.798334   1.000000   1.000000
    7      -18.580843    -18.580849   1.000000   1.000000
    8      -18.446054    -18.446062   1.000000   1.000000
    9      -16.355908    -16.355925   1.000000   1.000000
   10      -16.323312    -16.323324   1.000000   1.000000
   11      -16.296545    -16.296559   1.000000   1.000000
   12      -16.291478    -16.291497   1.000000   1.000000
   13      -15.775978    -15.775990   1.000000   1.000000
   14      -15.682015    -15.682029   1.000000   1.000000
   15       -6.284366     -6.284359   1.000000   1.000000
   16       -6.186526     -6.186526   1.000000   1.000000
   17       -3.866307     -3.866298   1.000000   1.000000
   18       -3.837200     -3.837195   1.000000   1.000000
   19       -3.752003     -3.751995   1.000000   1.000000
   20       -3.577355     -3.577354   1.000000   1.000000
   21       -3.552521     -3.552520   1.000000   1.000000
   22       -3.449814     -3.449817   1.000000   1.000000
   23       -1.668294     -1.668283   1.000000   1.000000
   24       -1.642178     -1.642168   1.000000   1.000000
   25       -1.438875     -1.438863   1.000000   1.000000
   26       -1.361921     -1.361913   1.000000   1.000000
   27       -1.190849     -1.190851   1.000000   1.000000
   28       -1.002835     -1.002827   1.000000   1.000000
   29       -0.803363     -0.803357   1.000000   1.000000
   30       -0.669387     -0.669386   1.000000   1.000000
   31       -0.434894     -0.434895   1.000000   1.000000
   32       -0.375753     -0.375755   1.000000   1.000000
   33        0.184747      0.184760   1.000000   1.000000
   34        0.246556      0.246566   1.000000   1.000000
   35        0.312688      0.312689   1.000000   1.000000
   36        0.372210      0.372212   1.000000   1.000000
   37        0.471616      0.471622   1.000000   1.000000
   38        0.648700      0.648701   1.000000   1.000000
   39        6.051515      6.051575   0.000000   0.000000
   40        7.874025      7.874126   0.000000   0.000000
   41        8.503460      8.503761   0.000000   0.000000
   42        8.770557      8.771003   0.000000   0.000000
   43        9.358269      9.358312   0.000000   0.000000
   44        9.441257      9.441235   0.000000   0.000000
   45        9.708608      9.709309   0.000000   0.000000
   46        9.898542      9.898567   0.000000   0.000000
   47       10.306630     10.309876   0.000000   0.000000
   48       10.853629     10.854296   0.000000   0.000000
   49       10.976855     10.980265   0.000000   0.000000
   50       12.038280     12.070825   0.000000   0.000000
   51       12.172214     12.336160   0.000000   0.000000
   52       12.337770     12.469870   0.000000   0.000000
 
  0.3333333E+00  0.0000000E+00  0.0000000E+00  0.1111111E-01
    1      -42.134636    -42.134398   1.000000   1.000000
    2      -42.134485    -42.134247   1.000000   1.000000
    3      -41.808570    -41.808393   1.000000   1.000000
    4      -41.806600    -41.806423   1.000000   1.000000
    5      -41.801185    -41.801008   1.000000   1.000000
    6      -41.799214    -41.799037   1.000000   1.000000
    7      -18.546236    -18.546243   1.000000   1.000000
    8      -18.467903    -18.467912   1.000000   1.000000
    9      -16.343005    -16.343022   1.000000   1.000000
   10      -16.318234    -16.318247   1.000000   1.000000
   11      -16.305844    -16.305863   1.000000   1.000000
   12      -16.302845    -16.302858   1.000000   1.000000
   13      -15.774629    -15.774641   1.000000   1.000000
   14      -15.719572    -15.719586   1.000000   1.000000
   15       -6.264423     -6.264418   1.000000   1.000000
   16       -6.192694     -6.192693   1.000000   1.000000
   17       -3.762698     -3.762693   1.000000   1.000000
   18       -3.724260     -3.724255   1.000000   1.000000
   19       -3.602737     -3.602727   1.000000   1.000000
   20       -3.532457     -3.532456   1.000000   1.000000
   21       -3.458484     -3.458486   1.000000   1.000000
   22       -3.457369     -3.457369   1.000000   1.000000
   23       -1.720911     -1.720899   1.000000   1.000000
   24       -1.713751     -1.713738   1.000000   1.000000
   25       -1.507249     -1.507236   1.000000   1.000000
   26       -1.445051     -1.445041   1.000000   1.000000
   27       -1.333824     -1.333820   1.000000   1.000000
   28       -1.140694     -1.140686   1.000000   1.000000
   29       -0.833151     -0.833147   1.000000   1.000000
   30       -0.698054     -0.698051   1.000000   1.000000
   31       -0.504408     -0.504409   1.000000   1.000000
   32       -0.496129     -0.496129   1.000000   1.000000
   33        0.258930      0.258936   1.000000   1.000000
   34        0.350743      0.350745   1.000000   1.000000
   35        0.370493      0.370500   1.000000   1.000000
   36        0.387731      0.387736   1.000000   1.000000
   37        0.469033      0.469038   1.000000   1.000000
   38        0.598884      0.598886   1.000000   1.000000
   39        6.715048      6.715097   0.000000   0.000000
   40        7.584791      7.584824   0.000000   0.000000
   41        8.476749      8.476834   0.000000   0.000000
   42        8.624278      8.624378   0.000000   0.000000
   43        9.076540      9.076592   0.000000   0.000000
   44        9.243559      9.243679   0.000000   0.000000
   45        9.468924      9.468907   0.000000   0.000000
   46        9.733738      9.733634   0.000000   0.000000
   47       10.424826     10.424764   0.000000   0.000000
   48       10.625891     10.626004   0.000000   0.000000
   49       11.320458     11.323764   0.000000   0.000000
   50       11.873761     11.879675   0.000000   0.000000
   51       12.205800     12.142152   0.000000   0.000000
   52       12.242214     12.289851   0.000000   0.000000
 
  0.5000000E+00  0.0000000E+00  0.0000000E+00  0.5555556E-02
    1      -42.134558    -42.134321   1.000000   1.000000
    2      -42.134558    -42.134321   1.000000   1.000000
    3      -41.807587    -41.807410   1.000000   1.000000
    4      -41.807587    -41.807410   1.000000   1.000000
    5      -41.800217    -41.800039   1.000000   1.000000
    6      -41.800217    -41.800039   1.000000   1.000000
    7      -18.503843    -18.503851   1.000000   1.000000
    8      -18.503843    -18.503850   1.000000   1.000000
    9      -16.324719    -16.324737   1.000000   1.000000
   10      -16.324719    -16.324737   1.000000   1.000000
   11      -16.310846    -16.310859   1.000000   1.000000
   12      -16.310846    -16.310859   1.000000   1.000000
   13      -15.756096    -15.756109   1.000000   1.000000
   14      -15.756096    -15.756109   1.000000   1.000000
   15       -6.226052     -6.226050   1.000000   1.000000
   16       -6.226052     -6.226050   1.000000   1.000000
   17       -3.720186     -3.720181   1.000000   1.000000
   18       -3.720186     -3.720181   1.000000   1.000000
   19       -3.486127     -3.486127   1.000000   1.000000
   20       -3.486127     -3.486127   1.000000   1.000000
   21       -3.412085     -3.412083   1.000000   1.000000
   22       -3.412085     -3.412083   1.000000   1.000000
   23       -1.746823     -1.746809   1.000000   1.000000
   24       -1.746823     -1.746810   1.000000   1.000000
   25       -1.523088     -1.523074   1.000000   1.000000
   26       -1.523088     -1.523074   1.000000   1.000000
   27       -1.396972     -1.396963   1.000000   1.000000
   28       -1.396972     -1.396963   1.000000   1.000000
   29       -0.661883     -0.661882   1.000000   1.000000
   30       -0.661883     -0.661882   1.000000   1.000000
   31       -0.587427     -0.587426   1.000000   1.000000
   32       -0.587427     -0.587426   1.000000   1.000000
   33        0.310307      0.310309   1.000000   1.000000
   34        0.310307      0.310309   1.000000   1.000000
   35        0.446806      0.446811   1.000000   1.000000
   36        0.446806      0.446811   1.000000   1.000000
   37        0.507061      0.507064   1.000000   1.000000
   38        0.507061      0.507064   1.000000   1.000000
   39        7.341002      7.341036   0.000000   0.000000
   40        7.341008      7.341039   0.000000   0.000000
   41        8.529234      8.529273   0.000000   0.000000
   42        8.529352      8.529346   0.000000   0.000000
   43        8.796172      8.796268   0.000000   0.000000
   44        8.796211      8.796324   0.000000   0.000000
   45        9.586357      9.586390   0.000000   0.000000
   46        9.586591      9.586573   0.000000   0.000000
   47       10.553485     10.553345   0.000000   0.000000
   48       10.555273     10.554405   0.000000   0.000000
   49       11.686260     11.685019   0.000000   0.000000
   50       11.741161     11.754960   0.000000   0.000000
   51       12.005126     12.006577   0.000000   0.000000
   52       12.181232     12.379694   0.000000   0.000000
 
  0.0000000E+00  0.1666667E+00  0.0000000E+00  0.1111111E-01
    1      -42.134679    -42.134441   1.000000   1.000000
    2      -42.134364    -42.134126   1.000000   1.000000
    3      -41.809537    -41.809360   1.000000   1.000000
    4      -41.805567    -41.805390   1.000000   1.000000
    5      -41.802064    -41.801887   1.000000   1.000000
    6      -41.798236    -41.798058   1.000000   1.000000
    7      -18.583240    -18.583246   1.000000   1.000000
    8      -18.442435    -18.442444   1.000000   1.000000
    9      -16.357018    -16.357035   1.000000   1.000000
   10      -16.344371    -16.344382   1.000000   1.000000
   11      -16.293146    -16.293159   1.000000   1.000000
   12      -16.290317    -16.290335   1.000000   1.000000
   13      -15.767497    -15.767510   1.000000   1.000000
   14      -15.670261    -15.670275   1.000000   1.000000
   15       -6.276390     -6.276383   1.000000   1.000000
   16       -6.181198     -6.181197   1.000000   1.000000
   17       -3.938089     -3.938079   1.000000   1.000000
   18       -3.891629     -3.891622   1.000000   1.000000
   19       -3.747052     -3.747046   1.000000   1.000000
   20       -3.622097     -3.622095   1.000000   1.000000
   21       -3.530331     -3.530330   1.000000   1.000000
   22       -3.424526     -3.424529   1.000000   1.000000
   23       -1.668806     -1.668794   1.000000   1.000000
   24       -1.549859     -1.549854   1.000000   1.000000
   25       -1.491090     -1.491079   1.000000   1.000000
   26       -1.342620     -1.342614   1.000000   1.000000
   27       -1.132017     -1.132015   1.000000   1.000000
   28       -0.950861     -0.950858   1.000000   1.000000
   29       -0.868269     -0.868262   1.000000   1.000000
   30       -0.514808     -0.514810   1.000000   1.000000
   31       -0.435142     -0.435143   1.000000   1.000000
   32       -0.411496     -0.411497   1.000000   1.000000
   33        0.140822      0.140835   1.000000   1.000000
   34        0.197725      0.197737   1.000000   1.000000
   35        0.299745      0.299747   1.000000   1.000000
   36        0.402369      0.402371   1.000000   1.000000
   37        0.436489      0.436497   1.000000   1.000000
   38        0.647491      0.647492   1.000000   1.000000
   39        5.986847      5.986909   0.000000   0.000000
   40        8.029861      8.029824   0.000000   0.000000
   41        8.521950      8.522004   0.000000   0.000000
   42        8.979735      8.979789   0.000000   0.000000
   43        9.162110      9.161776   0.000000   0.000000
   44        9.213488      9.213524   0.000000   0.000000
   45        9.828256      9.828253   0.000000   0.000000
   46        9.953743      9.953971   0.000000   0.000000
   47       10.439838     10.438624   0.000000   0.000000
   48       10.689495     10.687985   0.000000   0.000000
   49       11.172685     11.172839   0.000000   0.000000
   50       11.715662     11.639214   0.000000   0.000000
   51       11.865056     11.790472   0.000000   0.000000
   52       12.633246     12.479001   0.000000   0.000000
 
  0.1666667E+00  0.1666667E+00  0.0000000E+00  0.2222222E-01
    1      -42.134665    -42.134427   1.000000   1.000000
    2      -42.134406    -42.134168   1.000000   1.000000
    3      -41.809280    -41.809103   1.000000   1.000000
    4      -41.805856    -41.805679   1.000000   1.000000
    5      -41.801839    -41.801662   1.000000   1.000000
    6      -41.798528    -41.798351   1.000000   1.000000
    7      -18.570790    -18.570797   1.000000   1.000000
    8      -18.448347    -18.448355   1.000000   1.000000
    9      -16.352883    -16.352900   1.000000   1.000000
   10      -16.341494    -16.341506   1.000000   1.000000
   11      -16.297075    -16.297088   1.000000   1.000000
   12      -16.295175    -16.295194   1.000000   1.000000
   13      -15.770305    -15.770317   1.000000   1.000000
   14      -15.685526    -15.685540   1.000000   1.000000
   15       -6.271755     -6.271749   1.000000   1.000000
   16       -6.178442     -6.178442   1.000000   1.000000
   17       -3.862986     -3.862977   1.000000   1.000000
   18       -3.802869     -3.802863   1.000000   1.000000
   19       -3.715339     -3.715333   1.000000   1.000000
   20       -3.604814     -3.604812   1.000000   1.000000
   21       -3.530280     -3.530278   1.000000   1.000000
   22       -3.430809     -3.430812   1.000000   1.000000
   23       -1.690569     -1.690556   1.000000   1.000000
   24       -1.578401     -1.578395   1.000000   1.000000
   25       -1.492728     -1.492717   1.000000   1.000000
   26       -1.378249     -1.378242   1.000000   1.000000
   27       -1.194184     -1.194181   1.000000   1.000000
   28       -0.923594     -0.923591   1.000000   1.000000
   29       -0.824250     -0.824244   1.000000   1.000000
   30       -0.721364     -0.721362   1.000000   1.000000
   31       -0.484435     -0.484437   1.000000   1.000000
   32       -0.436011     -0.436012   1.000000   1.000000
   33        0.179431      0.179441   1.000000   1.000000
   34        0.254746      0.254757   1.000000   1.000000
   35        0.317660      0.317662   1.000000   1.000000
   36        0.399486      0.399488   1.000000   1.000000
   37        0.439028      0.439035   1.000000   1.000000
   38        0.631152      0.631153   1.000000   1.000000
   39        6.246646      6.246704   0.000000   0.000000
   40        7.798988      7.799255   0.000000   0.000000
   41        8.469741      8.469734   0.000000   0.000000
   42        8.838001      8.838006   0.000000   0.000000
   43        9.222355      9.222331   0.000000   0.000000
   44        9.372429      9.372691   0.000000   0.000000
   45        9.763658      9.764444   0.000000   0.000000
   46        9.873293      9.873263   0.000000   0.000000
   47       10.202256     10.210175   0.000000   0.000000
   48       10.628383     10.634925   0.000000   0.000000
   49       11.174064     11.171742   0.000000   0.000000
   50       11.738321     11.854851   0.000000   0.000000
   51       12.071114     12.074678   0.000000   0.000000
   52       12.432710     12.788470   0.000000   0.000000
 
  0.3333333E+00  0.1666667E+00  0.0000000E+00  0.2222222E-01
    1      -42.134602    -42.134364   1.000000   1.000000
    2      -42.134456    -42.134218   1.000000   1.000000
    3      -41.808569    -41.808392   1.000000   1.000000
    4      -41.806606    -41.806429   1.000000   1.000000
    5      -41.801148    -41.800971   1.000000   1.000000
    6      -41.799237    -41.799060   1.000000   1.000000
    7      -18.538522    -18.538529   1.000000   1.000000
    8      -18.467281    -18.467289   1.000000   1.000000
    9      -16.341343    -16.341360   1.000000   1.000000
   10      -16.333050    -16.333062   1.000000   1.000000
   11      -16.308021    -16.308039   1.000000   1.000000
   12      -16.307399    -16.307412   1.000000   1.000000
   13      -15.770693    -15.770705   1.000000   1.000000
   14      -15.721068    -15.721081   1.000000   1.000000
   15       -6.252268     -6.252264   1.000000   1.000000
   16       -6.186041     -6.186040   1.000000   1.000000
   17       -3.735632     -3.735626   1.000000   1.000000
   18       -3.671410     -3.671406   1.000000   1.000000
   19       -3.571714     -3.571707   1.000000   1.000000
   20       -3.558823     -3.558822   1.000000   1.000000
   21       -3.471215     -3.471214   1.000000   1.000000
   22       -3.454903     -3.454904   1.000000   1.000000
   23       -1.718979     -1.718966   1.000000   1.000000
   24       -1.644231     -1.644222   1.000000   1.000000
   25       -1.505347     -1.505335   1.000000   1.000000
   26       -1.464810     -1.464802   1.000000   1.000000
   27       -1.332883     -1.332876   1.000000   1.000000
   28       -1.159598     -1.159589   1.000000   1.000000
   29       -0.836902     -0.836898   1.000000   1.000000
   30       -0.721176     -0.721173   1.000000   1.000000
   31       -0.592807     -0.592807   1.000000   1.000000
   32       -0.504276     -0.504276   1.000000   1.000000
   33        0.253158      0.253163   1.000000   1.000000
   34        0.351882      0.351884   1.000000   1.000000
   35        0.356556      0.356564   1.000000   1.000000
   36        0.411850      0.411854   1.000000   1.000000
   37        0.442909      0.442915   1.000000   1.000000
   38        0.584308      0.584310   1.000000   1.000000
   39        6.871937      6.871983   0.000000   0.000000
   40        7.576819      7.576848   0.000000   0.000000
   41        8.409437      8.409705   0.000000   0.000000
   42        8.661636      8.661720   0.000000   0.000000
   43        9.011304      9.011320   0.000000   0.000000
   44        9.267085      9.267116   0.000000   0.000000
   45        9.270989      9.271052   0.000000   0.000000
   46        9.657676      9.657724   0.000000   0.000000
   47       10.333473     10.333242   0.000000   0.000000
   48       10.643280     10.643460   0.000000   0.000000
   49       11.474188     11.469341   0.000000   0.000000
   50       11.835235     11.819913   0.000000   0.000000
   51       12.059504     12.094528   0.000000   0.000000
   52       12.188652     12.151624   0.000000   0.000000
 
  0.5000000E+00  0.1666667E+00  0.0000000E+00  0.1111111E-01
    1      -42.134527    -42.134289   1.000000   1.000000
    2      -42.134527    -42.134289   1.000000   1.000000
    3      -41.807588    -41.807411   1.000000   1.000000
    4      -41.807588    -41.807411   1.000000   1.000000
    5      -41.800208    -41.800031   1.000000   1.000000
    6      -41.800208    -41.800031   1.000000   1.000000
    7      -18.499548    -18.499555   1.000000   1.000000
    8      -18.499548    -18.499555   1.000000   1.000000
    9      -16.324996    -16.325014   1.000000   1.000000
   10      -16.324996    -16.325014   1.000000   1.000000
   11      -16.320707    -16.320720   1.000000   1.000000
   12      -16.320707    -16.320720   1.000000   1.000000
   13      -15.754863    -15.754876   1.000000   1.000000
   14      -15.754863    -15.754876   1.000000   1.000000
   15       -6.216962     -6.216960   1.000000   1.000000
   16       -6.216962     -6.216960   1.000000   1.000000
   17       -3.674385     -3.674380   1.000000   1.000000
   18       -3.674384     -3.674380   1.000000   1.000000
   19       -3.501448     -3.501447   1.000000   1.000000
   20       -3.501448     -3.501447   1.000000   1.000000
   21       -3.409067     -3.409065   1.000000   1.000000
   22       -3.409067     -3.409065   1.000000   1.000000
   23       -1.703889     -1.703877   1.000000   1.000000
   24       -1.703889     -1.703877   1.000000   1.000000
   25       -1.533951     -1.533939   1.000000   1.000000
   26       -1.533950     -1.533939   1.000000   1.000000
   27       -1.388519     -1.388509   1.000000   1.000000
   28       -1.388520     -1.388509   1.000000   1.000000
   29       -0.719163     -0.719161   1.000000   1.000000
   30       -0.719163     -0.719161   1.000000   1.000000
   31       -0.604799     -0.604798   1.000000   1.000000
   32       -0.604799     -0.604798   1.000000   1.000000
   33        0.314331      0.314333   1.000000   1.000000
   34        0.314331      0.314333   1.000000   1.000000
   35        0.424096      0.424102   1.000000   1.000000
   36        0.424096      0.424102   1.000000   1.000000
   37        0.504388      0.504392   1.000000   1.000000
   38        0.504388      0.504392   1.000000   1.000000
   39        7.435633      7.435662   0.000000   0.000000
   40        7.435639      7.435670   0.000000   0.000000
   41        8.459951      8.460002   0.000000   0.000000
   42        8.460035      8.460044   0.000000   0.000000
   43        8.794151      8.794213   0.000000   0.000000
   44        8.794314      8.794361   0.000000   0.000000
   45        9.417044      9.417069   0.000000   0.000000
   46        9.417441      9.417383   0.000000   0.000000
   47       10.574711     10.574750   0.000000   0.000000
   48       10.576645     10.575464   0.000000   0.000000
   49       11.765949     11.760755   0.000000   0.000000
   50       11.777023     11.827844   0.000000   0.000000
   51       12.253302     12.237063   0.000000   0.000000
   52       12.275339     12.284051   0.000000   0.000000
 
  0.0000000E+00  0.3333333E+00  0.0000000E+00  0.1111111E-01
    1      -42.134645    -42.134408   1.000000   1.000000
    2      -42.134405    -42.134167   1.000000   1.000000
    3      -41.809648    -41.809471   1.000000   1.000000
    4      -41.805627    -41.805449   1.000000   1.000000
    5      -41.802055    -41.801878   1.000000   1.000000
    6      -41.798326    -41.798149   1.000000   1.000000
    7      -18.558289    -18.558295   1.000000   1.000000
    8      -18.452460    -18.452469   1.000000   1.000000
    9      -16.375024    -16.375034   1.000000   1.000000
   10      -16.348370    -16.348387   1.000000   1.000000
   11      -16.300787    -16.300806   1.000000   1.000000
   12      -16.299211    -16.299224   1.000000   1.000000
   13      -15.753291    -15.753304   1.000000   1.000000
   14      -15.680680    -15.680695   1.000000   1.000000
   15       -6.245009     -6.245005   1.000000   1.000000
   16       -6.171577     -6.171575   1.000000   1.000000
   17       -3.925305     -3.925296   1.000000   1.000000
   18       -3.860474     -3.860467   1.000000   1.000000
   19       -3.679134     -3.679131   1.000000   1.000000
   20       -3.658503     -3.658499   1.000000   1.000000
   21       -3.423343     -3.423343   1.000000   1.000000
   22       -3.393024     -3.393026   1.000000   1.000000
   23       -1.655550     -1.655538   1.000000   1.000000
   24       -1.572593     -1.572582   1.000000   1.000000
   25       -1.519148     -1.519141   1.000000   1.000000
   26       -1.406324     -1.406318   1.000000   1.000000
   27       -1.121614     -1.121609   1.000000   1.000000
   28       -0.884568     -0.884562   1.000000   1.000000
   29       -0.874764     -0.874760   1.000000   1.000000
   30       -0.759421     -0.759418   1.000000   1.000000
   31       -0.506747     -0.506750   1.000000   1.000000
   32       -0.421814     -0.421814   1.000000   1.000000
   33        0.139817      0.139823   1.000000   1.000000
   34        0.246832      0.246845   1.000000   1.000000
   35        0.325157      0.325162   1.000000   1.000000
   36        0.376411      0.376421   1.000000   1.000000
   37        0.430648      0.430649   1.000000   1.000000
   38        0.622223      0.622224   1.000000   1.000000
   39        6.516299      6.516355   0.000000   0.000000
   40        7.693288      7.693315   0.000000   0.000000
   41        8.450220      8.450225   0.000000   0.000000
   42        8.995305      8.995358   0.000000   0.000000
   43        9.045025      9.045065   0.000000   0.000000
   44        9.238642      9.238424   0.000000   0.000000
   45        9.867092      9.867740   0.000000   0.000000
   46        9.906474      9.906591   0.000000   0.000000
   47       10.155802     10.155979   0.000000   0.000000
   48       10.536831     10.536826   0.000000   0.000000
   49       11.092178     11.090496   0.000000   0.000000
   50       11.720013     11.719654   0.000000   0.000000
   51       11.947472     11.937848   0.000000   0.000000
   52       12.124640     12.074469   0.000000   0.000000
 
  0.1666667E+00  0.3333333E+00  0.0000000E+00  0.2222222E-01
    1      -42.134624    -42.134386   1.000000   1.000000
    2      -42.134410    -42.134173   1.000000   1.000000
    3      -41.809358    -41.809181   1.000000   1.000000
    4      -41.805874    -41.805696   1.000000   1.000000
    5      -41.801838    -41.801660   1.000000   1.000000
    6      -41.798595    -41.798417   1.000000   1.000000
    7      -18.547813    -18.547820   1.000000   1.000000
    8      -18.455779    -18.455788   1.000000   1.000000
    9      -16.370828    -16.370839   1.000000   1.000000
   10      -16.345419    -16.345436   1.000000   1.000000
   11      -16.305087    -16.305100   1.000000   1.000000
   12      -16.304226    -16.304244   1.000000   1.000000
   13      -15.757534    -15.757547   1.000000   1.000000
   14      -15.694255    -15.694269   1.000000   1.000000
   15       -6.239415     -6.239412   1.000000   1.000000
   16       -6.172259     -6.172257   1.000000   1.000000
   17       -3.841664     -3.841655   1.000000   1.000000
   18       -3.761327     -3.761322   1.000000   1.000000
   19       -3.652268     -3.652265   1.000000   1.000000
   20       -3.643352     -3.643347   1.000000   1.000000
   21       -3.432917     -3.432916   1.000000   1.000000
   22       -3.410203     -3.410204   1.000000   1.000000
   23       -1.656881     -1.656869   1.000000   1.000000
   24       -1.567266     -1.567255   1.000000   1.000000
   25       -1.531429     -1.531423   1.000000   1.000000
   26       -1.430107     -1.430101   1.000000   1.000000
   27       -1.166713     -1.166707   1.000000   1.000000
   28       -0.944433     -0.944425   1.000000   1.000000
   29       -0.853737     -0.853731   1.000000   1.000000
   30       -0.819291     -0.819288   1.000000   1.000000
   31       -0.613738     -0.613739   1.000000   1.000000
   32       -0.451136     -0.451137   1.000000   1.000000
   33        0.172867      0.172872   1.000000   1.000000
   34        0.275376      0.275388   1.000000   1.000000
   35        0.345289      0.345292   1.000000   1.000000