 running on   12 total cores
 distrk:  each k-point on   12 cores,    1 groups
 distr:  one band on    6 cores,    2 groups
 using from now: INCAR     
 vasp.6.1.2 22Jul20 (build Mar 20 2021 11:25:07) complex                        
  
 POSCAR found type information on POSCAR LiP O 
 POSCAR found :  3 types and      16 ions
 scaLAPACK will be used
 LDA part: xc-table for Pade appr. of Perdew
 generate k-points for:    6    6    5
 POSCAR, INCAR and KPOINTS ok, starting setup
 FFT: planning ...
 WAVECAR not read
 entering main loop
       N       E                     dE             d eps       ncg     rms          rms(c)
DAV:   1     0.622632132916E+03    0.62263E+03   -0.36373E+04  9984   0.152E+03
DAV:   2    -0.391662082391E+02   -0.66180E+03   -0.62825E+03 11768   0.389E+02
DAV:   3    -0.101843130778E+03   -0.62677E+02   -0.62325E+02 13772   0.114E+02
DAV:   4    -0.107476566877E+03   -0.56334E+01   -0.56074E+01 17904   0.291E+01
DAV:   5    -0.108091967018E+03   -0.61540E+00   -0.61527E+00 14264   0.604E+00    0.346E+01
RMM:   6    -0.982330016441E+02    0.98590E+01   -0.44067E+01 10963   0.241E+01    0.137E+01
RMM:   7    -0.993351323228E+02   -0.11021E+01   -0.43355E+00 14473   0.830E+00    0.726E+00
RMM:   8    -0.995277933785E+02   -0.19266E+00   -0.11037E+00 16447   0.445E+00    0.367E+00
RMM:   9    -0.996021953520E+02   -0.74402E-01   -0.37847E-01 16302   0.321E+00    0.978E-01
RMM:  10    -0.996369690090E+02   -0.34774E-01   -0.27437E-01 18606   0.189E+00    0.373E-01
RMM:  11    -0.996551478221E+02   -0.18179E-01   -0.13477E-01 19180   0.121E+00    0.292E-01
RMM:  12    -0.996625956983E+02   -0.74479E-02   -0.52892E-02 19374   0.768E-01    0.179E-01
RMM:  13    -0.996653844330E+02   -0.27887E-02   -0.21376E-02 18988   0.518E-01    0.802E-02
RMM:  14    -0.996667322049E+02   -0.13478E-02   -0.11014E-02 19083   0.367E-01    0.368E-02
RMM:  15    -0.996672406219E+02   -0.50842E-03   -0.47740E-03 18778   0.234E-01    0.308E-02
RMM:  16    -0.996674739457E+02   -0.23332E-03   -0.23241E-03 18567   0.157E-01    0.166E-02
RMM:  17    -0.996675611724E+02   -0.87227E-04   -0.88266E-04 18234   0.106E-01    0.670E-03
RMM:  18    -0.996676161252E+02   -0.54953E-04   -0.48570E-04 17936   0.743E-02    0.958E-03
RMM:  19    -0.996676361149E+02   -0.19990E-04   -0.19777E-04 17114   0.514E-02    0.778E-03
RMM:  20    -0.996676456602E+02   -0.95454E-05   -0.71497E-05 14096   0.385E-02
   1 F= -.99667646E+02 E0= -.99667646E+02  d E =0.000000E+00  mag=     0.0001
