 running on   24 total cores
 distrk:  each k-point on   24 cores,    1 groups
 distr:  one band on    6 cores,    4 groups
 using from now: INCAR     
 vasp.6.1.2 22Jul20 (build Mar 31 2021 18:09:49) complex                        
  
 POSCAR found type information on POSCAR LiP 
 POSCAR found :  2 types and       8 ions
 scaLAPACK will be used
 -----------------------------------------------------------------------------
|                                                                             |
|               ----> ADVICE to this user running VASP <----                  |
|                                                                             |
|     You have a (more or less) 'small supercell' and for smaller cells       |
|     it is recommended to use the reciprocal-space projection scheme!        |
|     The real-space optimization is not efficient for small cells and it     |
|     is also less accurate ...                                               |
|     Therefore, set LREAL=.FALSE. in the INCAR file.                         |
|                                                                             |
 -----------------------------------------------------------------------------

 LDA part: xc-table for Pade appr. of Perdew
 generate k-points for:    9    9    4
 POSCAR, INCAR and KPOINTS ok, starting setup
 FFT: planning ...
 WAVECAR not read
 entering main loop
       N       E                     dE             d eps       ncg     rms          rms(c)
DAV:   1     0.159279167732E+03    0.15928E+03   -0.11766E+04  9128   0.118E+03
DAV:   2     0.198294418619E+01   -0.15730E+03   -0.14833E+03  9960   0.300E+02
DAV:   3    -0.236407908145E+02   -0.25624E+02   -0.25386E+02 16440   0.697E+01
DAV:   4    -0.262827004534E+02   -0.26419E+01   -0.26223E+01 13344   0.307E+01
DAV:   5    -0.264852199727E+02   -0.20252E+00   -0.20251E+00 14560   0.673E+00    0.149E+01
RMM:   6    -0.269486871859E+02   -0.46347E+00   -0.16322E+00 11182   0.632E+00    0.755E+00
RMM:   7    -0.276513481813E+02   -0.70266E+00   -0.49780E-01 12659   0.427E+00    0.284E+00
RMM:   8    -0.277209055776E+02   -0.69557E-01   -0.38319E-01 14408   0.286E+00    0.118E+00
RMM:   9    -0.277297419133E+02   -0.88363E-02   -0.98116E-02 15204   0.170E+00    0.516E-01
RMM:  10    -0.277381234135E+02   -0.83815E-02   -0.43246E-02 15916   0.103E+00    0.265E-01
RMM:  11    -0.277403573506E+02   -0.22339E-02   -0.16411E-02 16272   0.601E-01    0.196E-01
RMM:  12    -0.277411718195E+02   -0.81447E-03   -0.63227E-03 15949   0.453E-01    0.529E-02
RMM:  13    -0.277417763112E+02   -0.60449E-03   -0.35348E-03 16341   0.280E-01    0.183E-02
RMM:  14    -0.277420046984E+02   -0.22839E-03   -0.18697E-03 15981   0.185E-01    0.224E-02
RMM:  15    -0.277421075333E+02   -0.10283E-03   -0.88640E-04 14329   0.125E-01    0.197E-02
RMM:  16    -0.277421622683E+02   -0.54735E-04   -0.48444E-04 14199   0.913E-02    0.277E-02
RMM:  17    -0.277421838811E+02   -0.21613E-04   -0.27520E-04 13814   0.760E-02    0.161E-02
RMM:  18    -0.277422026598E+02   -0.18779E-04   -0.17353E-04 13174   0.567E-02    0.144E-02
RMM:  19    -0.277422130045E+02   -0.10345E-04   -0.11184E-04 11898   0.464E-02    0.121E-02
RMM:  20    -0.277422191041E+02   -0.60997E-05   -0.63877E-05 10720   0.388E-02
   1 F= -.27742219E+02 E0= -.27742219E+02  d E =0.000000E+00  mag=    -0.0001
