   16   16    1    2
  0.9459905E+01  0.4627101E-09  0.5296402E-09  0.6176136E-09  0.5000000E-15
  1.000000000000000E-004
  CAR 
 unknown system                          
     76     48     52
 
  0.0000000E+00  0.0000000E+00  0.0000000E+00  0.4761905E-02
    1      -40.767229    -40.767305   1.000000   1.000000
    2      -40.766177    -40.766253   1.000000   1.000000
    3      -40.445667    -40.445752   1.000000   1.000000
    4      -40.437690    -40.437775   1.000000   1.000000
    5      -40.433053    -40.433138   1.000000   1.000000
    6      -40.424847    -40.424932   1.000000   1.000000
    7      -18.547276    -18.547273   1.000000   1.000000
    8      -18.360618    -18.360615   1.000000   1.000000
    9      -15.830901    -15.830896   1.000000   1.000000
   10      -15.758050    -15.758045   1.000000   1.000000
   11      -15.612071    -15.612062   1.000000   1.000000
   12      -15.567297    -15.567288   1.000000   1.000000
   13      -15.517176    -15.517168   1.000000   1.000000
   14      -15.478304    -15.478295   1.000000   1.000000
   15       -5.234988     -5.234976   1.000000   1.000000
   16       -4.991841     -4.991827   1.000000   1.000000
   17       -3.473868     -3.473850   1.000000   1.000000
   18       -3.400990     -3.400974   1.000000   1.000000
   19       -3.216947     -3.216931   1.000000   1.000000
   20       -3.180235     -3.180220   1.000000   1.000000
   21       -2.985765     -2.985748   1.000000   1.000000
   22       -2.895575     -2.895560   1.000000   1.000000
   23       -0.978947     -0.978928   1.000000   1.000000
   24       -0.954169     -0.954145   1.000000   1.000000
   25       -0.922464     -0.922449   1.000000   1.000000
   26       -0.712150     -0.712135   1.000000   1.000000
   27       -0.473852     -0.473829   1.000000   1.000000
   28       -0.472394     -0.472374   1.000000   1.000000
   29       -0.414200     -0.414183   1.000000   1.000000
   30        0.374288      0.374304   1.000000   1.000000
   31        0.415989      0.416008   1.000000   1.000000
   32        0.649879      0.649898   1.000000   1.000000
   33        0.822675      0.822698   1.000000   1.000000
   34        1.034987      1.035008   1.000000   1.000000
   35        1.082866      1.082889   1.000000   1.000000
   36        1.096554      1.096578   1.000000   1.000000
   37        1.403712      1.403732   1.000000   1.000000
   38        1.434169      1.434196   1.000000   1.000000
   39        7.798492      7.798517   0.000000   0.000000
   40        9.971800      9.972015   0.000000   0.000000
   41       10.881023     10.878276   0.000000   0.000000
   42       10.903637     10.904291   0.000000   0.000000
   43       11.078273     11.078091   0.000000   0.000000
   44       11.440944     11.440796   0.000000   0.000000
   45       11.542829     11.543161   0.000000   0.000000
   46       12.221265     12.221219   0.000000   0.000000
   47       12.736774     12.733985   0.000000   0.000000
   48       12.873009     12.873010   0.000000   0.000000
   49       13.999486     13.987190   0.000000   0.000000
   50       14.107795     14.090877   0.000000   0.000000
   51       14.756993     14.737044   0.000000   0.000000
   52       14.915272     14.767291   0.000000   0.000000
 
  0.1428571E+00  0.0000000E+00  0.0000000E+00  0.9523810E-02
    1      -40.767041    -40.767117   1.000000   1.000000
    2      -40.766127    -40.766203   1.000000   1.000000
    3      -40.445009    -40.445094   1.000000   1.000000
    4      -40.437027    -40.437112   1.000000   1.000000
    5      -40.433671    -40.433756   1.000000   1.000000
    6      -40.425402    -40.425487   1.000000   1.000000
    7      -18.526798    -18.526795   1.000000   1.000000
    8      -18.356636    -18.356635   1.000000   1.000000
    9      -15.853958    -15.853952   1.000000   1.000000
   10      -15.785604    -15.785599   1.000000   1.000000
   11      -15.606661    -15.606652   1.000000   1.000000
   12      -15.566210    -15.566201   1.000000   1.000000
   13      -15.520752    -15.520744   1.000000   1.000000
   14      -15.486132    -15.486122   1.000000   1.000000
   15       -5.268878     -5.268866   1.000000   1.000000
   16       -5.001243     -5.001229   1.000000   1.000000
   17       -3.345964     -3.345949   1.000000   1.000000
   18       -3.318636     -3.318619   1.000000   1.000000
   19       -3.149042     -3.149026   1.000000   1.000000
   20       -3.148278     -3.148262   1.000000   1.000000
   21       -2.955548     -2.955532   1.000000   1.000000
   22       -2.891875     -2.891860   1.000000   1.000000
   23       -1.028604     -1.028585   1.000000   1.000000
   24       -1.017102     -1.017079   1.000000   1.000000
   25       -1.016100     -1.016085   1.000000   1.000000
   26       -0.790146     -0.790128   1.000000   1.000000
   27       -0.431494     -0.431476   1.000000   1.000000
   28       -0.395040     -0.395020   1.000000   1.000000
   29       -0.380272     -0.380253   1.000000   1.000000
   30        0.339226      0.339242   1.000000   1.000000
   31        0.374222      0.374240   1.000000   1.000000
   32        0.448533      0.448552   1.000000   1.000000
   33        0.866968      0.866990   1.000000   1.000000
   34        1.084520      1.084541   1.000000   1.000000
   35        1.111408      1.111431   1.000000   1.000000
   36        1.168131      1.168155   1.000000   1.000000
   37        1.346657      1.346679   1.000000   1.000000
   38        1.486505      1.486531   1.000000   1.000000
   39        7.980953      7.980979   0.000000   0.000000
   40        9.942052      9.942133   0.000000   0.000000
   41       10.458392     10.458100   0.000000   0.000000
   42       10.775205     10.775735   0.000000   0.000000
   43       11.221147     11.221294   0.000000   0.000000
   44       11.495670     11.495631   0.000000   0.000000
   45       11.697305     11.696022   0.000000   0.000000
   46       12.155485     12.155415   0.000000   0.000000
   47       12.751380     12.747826   0.000000   0.000000
   48       12.824973     12.825250   0.000000   0.000000
   49       13.925044     13.887365   0.000000   0.000000
   50       14.008397     13.986839   0.000000   0.000000
   51       14.252215     14.411061   0.000000   0.000000
   52       14.662530     14.529501   0.000000   0.000000
 
  0.2857143E+00  0.0000000E+00  0.0000000E+00  0.9523810E-02
    1      -40.766733    -40.766809   1.000000   1.000000
    2      -40.766104    -40.766180   1.000000   1.000000
    3      -40.443305    -40.443390   1.000000   1.000000
    4      -40.435509    -40.435595   1.000000   1.000000
    5      -40.435217    -40.435302   1.000000   1.000000
    6      -40.427180    -40.427265   1.000000   1.000000
    7      -18.474230    -18.474227   1.000000   1.000000
    8      -18.353275    -18.353274   1.000000   1.000000
    9      -15.903395    -15.903389   1.000000   1.000000
   10      -15.851641    -15.851635   1.000000   1.000000
   11      -15.591152    -15.591142   1.000000   1.000000
   12      -15.562293    -15.562284   1.000000   1.000000
   13      -15.530590    -15.530582   1.000000   1.000000
   14      -15.507719    -15.507710   1.000000   1.000000
   15       -5.306321     -5.306308   1.000000   1.000000
   16       -5.062201     -5.062186   1.000000   1.000000
   17       -3.235240     -3.235226   1.000000   1.000000
   18       -3.127087     -3.127071   1.000000   1.000000
   19       -3.065856     -3.065841   1.000000   1.000000
   20       -2.888260     -2.888245   1.000000   1.000000
   21       -2.883149     -2.883135   1.000000   1.000000
   22       -2.717607     -2.717593   1.000000   1.000000
   23       -1.170219     -1.170202   1.000000   1.000000
   24       -1.145010     -1.144991   1.000000   1.000000
   25       -1.134953     -1.134930   1.000000   1.000000
   26       -0.946247     -0.946228   1.000000   1.000000
   27       -0.526471     -0.526453   1.000000   1.000000
   28       -0.247443     -0.247425   1.000000   1.000000
   29       -0.208100     -0.208082   1.000000   1.000000
   30       -0.049774     -0.049753   1.000000   1.000000
   31        0.244974      0.244991   1.000000   1.000000
   32        0.274111      0.274129   1.000000   1.000000
   33        0.933319      0.933340   1.000000   1.000000
   34        1.201067      1.201090   1.000000   1.000000
   35        1.242394      1.242415   1.000000   1.000000
   36        1.245730      1.245754   1.000000   1.000000
   37        1.301254      1.301279   1.000000   1.000000
   38        1.550675      1.550701   1.000000   1.000000
   39        8.443839      8.443865   0.000000   0.000000
   40        9.706212      9.706877   0.000000   0.000000
   41       10.171251     10.171450   0.000000   0.000000
   42       10.600158     10.600570   0.000000   0.000000
   43       11.253897     11.253969   0.000000   0.000000
   44       11.533513     11.533518   0.000000   0.000000
   45       11.610801     11.611729   0.000000   0.000000
   46       11.994100     11.994038   0.000000   0.000000
   47       12.692028     12.692091   0.000000   0.000000
   48       12.834877     12.834445   0.000000   0.000000
   49       13.546625     13.552063   0.000000   0.000000
   50       13.841903     13.846845   0.000000   0.000000
   51       13.857758     13.863774   0.000000   0.000000
   52       14.035269     14.038247   0.000000   0.000000
 
  0.4285714E+00  0.0000000E+00  0.0000000E+00  0.9523810E-02
    1      -40.766369    -40.766445   1.000000   1.000000
    2      -40.766135    -40.766211   1.000000   1.000000
    3      -40.440833    -40.440918   1.000000   1.000000
    4      -40.438037    -40.438122   1.000000   1.000000
    5      -40.432577    -40.432663   1.000000   1.000000
    6      -40.429693    -40.429778   1.000000   1.000000
    7      -18.412647    -18.412646   1.000000   1.000000
    8      -18.368455    -18.368454   1.000000   1.000000
    9      -15.934060    -15.934053   1.000000   1.000000
   10      -15.914222    -15.914216   1.000000   1.000000
   11      -15.566677    -15.566668   1.000000   1.000000
   12      -15.554406    -15.554398   1.000000   1.000000
   13      -15.543061    -15.543052   1.000000   1.000000
   14      -15.536907    -15.536898   1.000000   1.000000
   15       -5.274978     -5.274963   1.000000   1.000000
   16       -5.175401     -5.175386   1.000000   1.000000
   17       -3.147200     -3.147186   1.000000   1.000000
   18       -3.105668     -3.105654   1.000000   1.000000
   19       -2.970765     -2.970751   1.000000   1.000000
   20       -2.907236     -2.907222   1.000000   1.000000
   21       -2.480422     -2.480409   1.000000   1.000000
   22       -2.379373     -2.379362   1.000000   1.000000
   23       -1.264541     -1.264523   1.000000   1.000000
   24       -1.249484     -1.249465   1.000000   1.000000
   25       -1.185186     -1.185165   1.000000   1.000000
   26       -1.102083     -1.102062   1.000000   1.000000
   27       -0.687766     -0.687746   1.000000   1.000000
   28       -0.586775     -0.586754   1.000000   1.000000
   29       -0.054440     -0.054422   1.000000   1.000000
   30       -0.028426     -0.028408   1.000000   1.000000
   31        0.108457      0.108474   1.000000   1.000000
   32        0.136874      0.136892   1.000000   1.000000
   33        1.010815      1.010836   1.000000   1.000000
   34        1.119246      1.119266   1.000000   1.000000
   35        1.314279      1.314304   1.000000   1.000000
   36        1.365726      1.365751   1.000000   1.000000
   37        1.436794      1.436819   1.000000   1.000000
   38        1.549792      1.549818   1.000000   1.000000
   39        8.977617      8.977648   0.000000   0.000000
   40        9.370004      9.370174   0.000000   0.000000
   41       10.261694     10.261807   0.000000   0.000000
   42       10.430992     10.431387   0.000000   0.000000
   43       11.068639     11.068665   0.000000   0.000000
   44       11.158174     11.158436   0.000000   0.000000
   45       11.715971     11.715747   0.000000   0.000000
   46       11.829194     11.829229   0.000000   0.000000
   47       12.712503     12.712249   0.000000   0.000000
   48       12.861307     12.863185   0.000000   0.000000
   49       13.430453     13.435020   0.000000   0.000000
   50       13.707323     13.702694   0.000000   0.000000
   51       13.746973     13.782186   0.000000   0.000000
   52       14.548079     13.861179   0.000000   0.000000
 
  0.0000000E+00  0.1666667E+00  0.0000000E+00  0.9523810E-02
    1      -40.767122    -40.767198   1.000000   1.000000
    2      -40.766150    -40.766225   1.000000   1.000000
    3      -40.445731    -40.445816   1.000000   1.000000
    4      -40.437622    -40.437707   1.000000   1.000000
    5      -40.432945    -40.433030   1.000000   1.000000
    6      -40.424840    -40.424926   1.000000   1.000000
    7      -18.537857    -18.537855   1.000000   1.000000
    8      -18.366242    -18.366239   1.000000   1.000000
    9      -15.826812    -15.826807   1.000000   1.000000
   10      -15.758173    -15.758168   1.000000   1.000000
   11      -15.605473    -15.605464   1.000000   1.000000
   12      -15.593099    -15.593091   1.000000   1.000000
   13      -15.506105    -15.506097   1.000000   1.000000
   14      -15.485761    -15.485752   1.000000   1.000000
   15       -5.213289     -5.213277   1.000000   1.000000
   16       -4.991044     -4.991030   1.000000   1.000000
   17       -3.464061     -3.464044   1.000000   1.000000
   18       -3.386340     -3.386323   1.000000   1.000000
   19       -3.204504     -3.204488   1.000000   1.000000
   20       -3.188929     -3.188912   1.000000   1.000000
   21       -2.944722     -2.944707   1.000000   1.000000
   22       -2.867857     -2.867843   1.000000   1.000000
   23       -1.054202     -1.054184   1.000000   1.000000
   24       -1.014173     -1.014151   1.000000   1.000000
   25       -0.863138     -0.863123   1.000000   1.000000
   26       -0.667890     -0.667872   1.000000   1.000000
   27       -0.581028     -0.581007   1.000000   1.000000
   28       -0.462287     -0.462266   1.000000   1.000000
   29       -0.217427     -0.217408   1.000000   1.000000
   30        0.182054      0.182071   1.000000   1.000000
   31        0.411753      0.411771   1.000000   1.000000
   32        0.605477      0.605496   1.000000   1.000000
   33        0.861269      0.861291   1.000000   1.000000
   34        0.973572      0.973593   1.000000   1.000000
   35        1.020235      1.020258   1.000000   1.000000
   36        1.169694      1.169718   1.000000   1.000000
   37        1.386054      1.386079   1.000000   1.000000
   38        1.476210      1.476233   1.000000   1.000000
   39        8.040865      8.040889   0.000000   0.000000
   40        9.805413      9.805465   0.000000   0.000000
   41       10.487880     10.488305   0.000000   0.000000
   42       10.874337     10.873968   0.000000   0.000000
   43       11.386391     11.386366   0.000000   0.000000
   44       11.601618     11.601950   0.000000   0.000000
   45       11.687949     11.688402   0.000000   0.000000
   46       12.161071     12.160530   0.000000   0.000000
   47       12.522355     12.521739   0.000000   0.000000
   48       12.754627     12.754856   0.000000   0.000000
   49       13.684320     13.684141   0.000000   0.000000
   50       14.021139     14.031140   0.000000   0.000000
   51       14.520337     14.611446   0.000000   0.000000
   52       15.265280     15.122191   0.000000   0.000000
 
  0.1428571E+00  0.1666667E+00  0.0000000E+00  0.1904762E-01
    1      -40.766996    -40.767072   1.000000   1.000000
    2      -40.766143    -40.766219   1.000000   1.000000
    3      -40.445117    -40.445202   1.000000   1.000000
    4      -40.436986    -40.437071   1.000000   1.000000
    5      -40.433635    -40.433720   1.000000   1.000000
    6      -40.425475    -40.425560   1.000000   1.000000
    7      -18.518058    -18.518055   1.000000   1.000000
    8      -18.361615    -18.361613   1.000000   1.000000
    9      -15.850435    -15.850429   1.000000   1.000000
   10      -15.785750    -15.785745   1.000000   1.000000
   11      -15.600864    -15.600855   1.000000   1.000000
   12      -15.590199    -15.590191   1.000000   1.000000
   13      -15.511845    -15.511837   1.000000   1.000000
   14      -15.493068    -15.493059   1.000000   1.000000
   15       -5.246533     -5.246520   1.000000   1.000000
   16       -5.005036     -5.005022   1.000000   1.000000
   17       -3.339593     -3.339578   1.000000   1.000000
   18       -3.282916     -3.282900   1.000000   1.000000
   19       -3.162627     -3.162611   1.000000   1.000000
   20       -3.138346     -3.138330   1.000000   1.000000
   21       -2.926661     -2.926646   1.000000   1.000000
   22       -2.866373     -2.866359   1.000000   1.000000
   23       -1.117899     -1.117881   1.000000   1.000000
   24       -1.047442     -1.047420   1.000000   1.000000
   25       -0.908045     -0.908029   1.000000   1.000000
   26       -0.730303     -0.730285   1.000000   1.000000
   27       -0.586021     -0.586001   1.000000   1.000000
   28       -0.393925     -0.393906   1.000000   1.000000
   29       -0.200452     -0.200433   1.000000   1.000000
   30        0.117417      0.117434   1.000000   1.000000
   31        0.369220      0.369238   1.000000   1.000000
   32        0.453426      0.453444   1.000000   1.000000
   33        0.890954      0.890976   1.000000   1.000000
   34        1.032296      1.032318   1.000000   1.000000
   35        1.061069      1.061092   1.000000   1.000000
   36        1.221227      1.221251   1.000000   1.000000
   37        1.381976      1.382000   1.000000   1.000000
   38        1.479435      1.479459   1.000000   1.000000
   39        8.201018      8.201042   0.000000   0.000000
   40        9.819719      9.819736   0.000000   0.000000
   41       10.148530     10.148578   0.000000   0.000000
   42       10.919668     10.920081   0.000000   0.000000
   43       11.380745     11.380739   0.000000   0.000000
   44       11.432515     11.432980   0.000000   0.000000
   45       11.801536     11.801440   0.000000   0.000000
   46       12.102481     12.102351   0.000000   0.000000
   47       12.579527     12.579910   0.000000   0.000000
   48       12.736987     12.737232   0.000000   0.000000
   49       13.649408     13.624365   0.000000   0.000000
   50       13.758479     13.783006   0.000000   0.000000
   51       14.410827     14.312063   0.000000   0.000000
   52       14.622382     14.632475   0.000000   0.000000
 
  0.2857143E+00  0.1666667E+00  0.0000000E+00  0.1904762E-01
    1      -40.766659    -40.766735   1.000000   1.000000
    2      -40.766101    -40.766177   1.000000   1.000000
    3      -40.443371    -40.443456   1.000000   1.000000
    4      -40.435461    -40.435546   1.000000   1.000000
    5      -40.435172    -40.435257   1.000000   1.000000
    6      -40.427194    -40.427279   1.000000   1.000000
    7      -18.467188    -18.467186   1.000000   1.000000
    8      -18.355911    -18.355909   1.000000   1.000000
    9      -15.900588    -15.900581   1.000000   1.000000
   10      -15.851508    -15.851502   1.000000   1.000000
   11      -15.587120    -15.587111   1.000000   1.000000
   12      -15.581065    -15.581057   1.000000   1.000000
   13      -15.526919    -15.526911   1.000000   1.000000
   14      -15.512519    -15.512509   1.000000   1.000000
   15       -5.285928     -5.285914   1.000000   1.000000
   16       -5.068268     -5.068254   1.000000   1.000000
   17       -3.218206     -3.218191   1.000000   1.000000
   18       -3.090976     -3.090960   1.000000   1.000000
   19       -3.065745     -3.065730   1.000000   1.000000
   20       -2.873482     -2.873468   1.000000   1.000000
   21       -2.861633     -2.861618   1.000000   1.000000
   22       -2.735511     -2.735497   1.000000   1.000000
   23       -1.219283     -1.219264   1.000000   1.000000
   24       -1.113450     -1.113428   1.000000   1.000000
   25       -1.027109     -1.027092   1.000000   1.000000
   26       -0.883039     -0.883020   1.000000   1.000000
   27       -0.623376     -0.623357   1.000000   1.000000
   28       -0.241923     -0.241905   1.000000   1.000000
   29       -0.223200     -0.223182   1.000000   1.000000
   30       -0.136820     -0.136799   1.000000   1.000000
   31        0.205211      0.205229   1.000000   1.000000
   32        0.261984      0.262001   1.000000   1.000000
   33        0.943312      0.943334   1.000000   1.000000
   34        1.165717      1.165741   1.000000   1.000000
   35        1.179694      1.179718   1.000000   1.000000
   36        1.324036      1.324061   1.000000   1.000000
   37        1.324905      1.324927   1.000000   1.000000
   38        1.524748      1.524773   1.000000   1.000000
   39        8.609357      8.609382   0.000000   0.000000
   40        9.655828      9.656278   0.000000   0.000000
   41        9.925061      9.925142   0.000000   0.000000
   42       10.837944     10.838041   0.000000   0.000000
   43       11.181593     11.181699   0.000000   0.000000
   44       11.376622     11.376181   0.000000   0.000000
   45       11.599132     11.599030   0.000000   0.000000
   46       11.914181     11.914544   0.000000   0.000000
   47       12.585880     12.585427   0.000000   0.000000
   48       12.850022     12.848741   0.000000   0.000000
   49       13.474583     13.479509   0.000000   0.000000
   50       13.682316     13.733402   0.000000   0.000000
   51       13.982190     14.150730   0.000000   0.000000
   52       14.895748     14.811214   0.000000   0.000000
 
  0.4285714E+00  0.1666667E+00  0.0000000E+00  0.1904762E-01
    1      -40.766341    -40.766417   1.000000   1.000000
    2      -40.766144    -40.766220   1.000000   1.000000
    3      -40.440886    -40.440971   1.000000   1.000000
    4      -40.438069    -40.438154   1.000000   1.000000
    5      -40.432576    -40.432661   1.000000   1.000000
    6      -40.429723    -40.429809   1.000000   1.000000
    7      -18.408531    -18.408529   1.000000   1.000000
    8      -18.367848    -18.367846   1.000000   1.000000
    9      -15.932481    -15.932475   1.000000   1.000000
   10      -15.913664    -15.913658   1.000000   1.000000
   11      -15.566010    -15.566002   1.000000   1.000000
   12      -15.565471    -15.565462   1.000000   1.000000
   13      -15.546726    -15.546717   1.000000   1.000000
   14      -15.538874    -15.538864   1.000000   1.000000
   15       -5.262198     -5.262184   1.000000   1.000000
   16       -5.173707     -5.173692   1.000000   1.000000
   17       -3.122625     -3.122610   1.000000   1.000000
   18       -3.058903     -3.058889   1.000000   1.000000
   19       -2.996511     -2.996496   1.000000   1.000000
   20       -2.914677     -2.914663   1.000000   1.000000
   21       -2.468727     -2.468715   1.000000   1.000000
   22       -2.386368     -2.386357   1.000000   1.000000
   23       -1.245357     -1.245339   1.000000   1.000000
   24       -1.165043     -1.165025   1.000000   1.000000
   25       -1.129240     -1.129218   1.000000   1.000000
   26       -1.046808     -1.046788   1.000000   1.000000
   27       -0.742570     -0.742550   1.000000   1.000000
   28       -0.651997     -0.651976   1.000000   1.000000
   29       -0.078986     -0.078968   1.000000   1.000000
   30       -0.063311     -0.063293   1.000000   1.000000
   31        0.049061      0.049079   1.000000   1.000000
   32        0.112150      0.112167   1.000000   1.000000
   33        1.028016      1.028038   1.000000   1.000000
   34        1.142527      1.142548   1.000000   1.000000
   35        1.293452      1.293477   1.000000   1.000000
   36        1.363900      1.363926   1.000000   1.000000
   37        1.423517      1.423542   1.000000   1.000000
   38        1.525696      1.525721   1.000000   1.000000
   39        9.060772      9.060845   0.000000   0.000000
   40        9.361066      9.361111   0.000000   0.000000
   41       10.148481     10.148702   0.000000   0.000000
   42       10.565398     10.565523   0.000000   0.000000
   43       10.991564     10.991751   0.000000   0.000000
   44       11.155316     11.155436   0.000000   0.000000
   45       11.446081     11.445837   0.000000   0.000000
   46       11.647969     11.647756   0.000000   0.000000
   47       12.675676     12.672507   0.000000   0.000000
   48       12.960509     12.960782   0.000000   0.000000
   49       13.389234     13.357047   0.000000   0.000000
   50       13.785537     13.781752   0.000000   0.000000
   51       14.146504     13.955996   0.000000   0.000000
   52       14.733515     14.398418   0.000000   0.000000
 
  0.0000000E+00  0.3333333E+00  0.0000000E+00  0.9523810E-02
    1      -40.766954    -40.767030   1.000000   1.000000
    2      -40.766221    -40.766297   1.000000   1.000000
    3      -40.445879    -40.445964   1.000000   1.000000
    4      -40.437592    -40.437677   1.000000   1.000000
    5      -40.432875    -40.432960   1.000000   1.000000
    6      -40.424924    -40.425010   1.000000   1.000000
    7      -18.516488    -18.516486   1.000000   1.000000
    8      -18.380462    -18.380460   1.000000   1.000000
    9      -15.818948    -15.818942   1.000000   1.000000
   10      -15.757186    -15.757180   1.000000   1.000000
   11      -15.631780    -15.631771   1.000000   1.000000
   12      -15.589209    -15.589199   1.000000   1.000000
   13      -15.504245    -15.504236   1.000000   1.000000
   14      -15.498936    -15.498927   1.000000   1.000000
   15       -5.152239     -5.152226   1.000000   1.000000
   16       -5.012077     -5.012064   1.000000   1.000000
   17       -3.459709     -3.459692   1.000000   1.000000
   18       -3.344431     -3.344413   1.000000   1.000000
   19       -3.200202     -3.200185   1.000000   1.000000
   20       -3.169878     -3.169862   1.000000   1.000000
   21       -2.851437     -2.851425   1.000000   1.000000
   22       -2.818995     -2.818982   1.000000   1.000000
   23       -1.093645     -1.093626   1.000000   1.000000
   24       -1.015896     -1.015875   1.000000   1.000000
   25       -0.899728     -0.899712   1.000000   1.000000
   26       -0.748394     -0.748372   1.000000   1.000000
   27       -0.514811     -0.514791   1.000000   1.000000
   28       -0.380292     -0.380272   1.000000   1.000000
   29       -0.233898     -0.233882   1.000000   1.000000
   30        0.004171      0.004190   1.000000   1.000000
   31        0.389595      0.389612   1.000000   1.000000
   32        0.483483      0.483502   1.000000   1.000000
   33        0.861466      0.861487   1.000000   1.000000
   34        0.972536      0.972559   1.000000   1.000000
   35        0.973470      0.973492   1.000000   1.000000
   36        1.240467      1.240492   1.000000   1.000000
   37        1.285412      1.285438   1.000000   1.000000
   38        1.577608      1.577629   1.000000   1.000000
   39        8.655175      8.655202   0.000000   0.000000
   40        9.491321      9.491402   0.000000   0.000000
   41       10.085805     10.085938   0.000000   0.000000
   42       10.724024     10.723987   0.000000   0.000000
   43       11.277393     11.277369   0.000000   0.000000
   44       11.983112     11.983764   0.000000   0.000000
   45       12.013662     12.013358   0.000000   0.000000
   46       12.122582     12.122648   0.000000   0.000000
   47       12.338117     12.338896   0.000000   0.000000
   48       12.762720     12.762767   0.000000   0.000000
   49       13.354576     13.353155   0.000000   0.000000
   50       13.603714     13.606020   0.000000   0.000000
   51       14.385780     14.389717   0.000000   0.000000
   52       14.811350     14.703709   0.000000   0.000000
 
  0.1428571E+00  0.3333333E+00  0.0000000E+00  0.1904762E-01
    1      -40.766850    -40.766925   1.000000   1.000000
    2      -40.766197    -40.766273   1.000000   1.000000
    3      -40.445267    -40.445352   1.000000   1.000000
    4      -40.436948    -40.437033   1.000000   1.000000
    5      -40.433559    -40.433645   1.000000   1.000000
    6      -40.425566    -40.425652   1.000000   1.000000
    7      -18.498065    -18.498063   1.000000   1.000000
    8      -18.374011    -18.374009   1.000000   1.000000
    9      -15.843368    -15.843362   1.000000   1.000000
   10      -15.784894    -15.784888   1.000000   1.000000
   11      -15.626203    -15.626195   1.000000   1.000000
   12      -15.586271    -15.586261   1.000000   1.000000
   13      -15.509731    -15.509722   1.000000   1.000000
   14      -15.507059    -15.507051   1.000000   1.000000
   15       -5.184254     -5.184241   1.000000   1.000000
   16       -5.035250     -5.035236   1.000000   1.000000
   17       -3.323752     -3.323736   1.000000   1.000000
   18       -3.214215     -3.214199   1.000000   1.000000
   19       -3.182473     -3.182456   1.000000   1.000000
   20       -3.119194     -3.119178   1.000000   1.000000
   21       -2.843391     -2.843378   1.000000   1.000000
   22       -2.826073     -2.826060   1.000000   1.000000
   23       -1.134731     -1.134712   1.000000   1.000000
   24       -1.030653     -1.030632   1.000000   1.000000
   25       -0.890438     -0.890423   1.000000   1.000000
   26       -0.763032     -0.763012   1.000000   1.000000
   27       -0.562486     -0.562466   1.000000   1.000000
   28       -0.366536     -0.366516   1.000000   1.000000
   29       -0.304521     -0.304505   1.000000   1.000000
   30       -0.014199     -0.014180   1.000000   1.000000
   31        0.343977      0.343993   1.000000   1.000000
   32        0.372590      0.372609   1.000000   1.000000
   33        0.886850      0.886871   1.000000   1.000000
   34        1.010286      1.010309   1.000000   1.000000
   35        1.030856      1.030880   1.000000   1.000000