       N       E                     dE             d eps       ncg     rms          rms(c)
DAV:   1     0.174881071882E+03    0.17488E+03   -0.16187E+04 27840   0.119E+03
DAV:   2    -0.379554348108E+02   -0.21284E+03   -0.20466E+03 38416   0.279E+02
DAV:   3    -0.494435637969E+02   -0.11488E+02   -0.11424E+02 37072   0.681E+01
DAV:   4    -0.495784354450E+02   -0.13487E+00   -0.13480E+00 33336   0.832E+00
DAV:   5    -0.495808320706E+02   -0.23966E-02   -0.23959E-02 37024   0.105E+00    0.257E+01
RMM:   6    -0.438008242391E+02    0.57800E+01   -0.17006E+01 28168   0.217E+01    0.103E+01
RMM:   7    -0.440033701777E+02   -0.20255E+00   -0.31625E+00 32755   0.106E+01    0.476E+00
RMM:   8    -0.439961873362E+02    0.71828E-02   -0.32889E-01 32149   0.385E+00    0.279E+00
RMM:   9    -0.439952758531E+02    0.91148E-03   -0.84552E-02 32619   0.205E+00    0.684E-01
RMM:  10    -0.439960658633E+02   -0.79001E-03   -0.22593E-02 35828   0.869E-01    0.222E-01
RMM:  11    -0.439968337082E+02   -0.76784E-03   -0.10785E-02 34960   0.574E-01    0.186E-01
RMM:  12    -0.439968109975E+02    0.22711E-04   -0.12909E-03 35274   0.231E-01    0.104E-01
RMM:  13    -0.439967919812E+02    0.19016E-04   -0.75737E-04 33657   0.180E-01    0.347E-02
RMM:  14    -0.439967938436E+02   -0.18625E-05   -0.79153E-05 35402   0.655E-02
   1 F= -.43996794E+02 E0= -.43996794E+02  d E =0.000000E+00  mag=    -0.0002
