 running on   12 total cores
 distrk:  each k-point on   12 cores,    1 groups
 distr:  one band on    6 cores,    2 groups
 using from now: INCAR     
 vasp.6.1.2 22Jul20 (build Mar 20 2021 11:25:07) complex                        
  
 POSCAR found type information on POSCAR LiP O 
 POSCAR found :  3 types and      26 ions
 scaLAPACK will be used
 LDA part: xc-table for Pade appr. of Perdew
 generate k-points for:    6    5    4
 POSCAR, INCAR and KPOINTS ok, starting setup
 FFT: planning ...
 WAVECAR not read
 entering main loop
       N       E                     dE             d eps       ncg     rms          rms(c)
DAV:   1     0.111700394188E+04    0.11170E+04   -0.61876E+04 21328   0.152E+03
DAV:   2    -0.621346160190E+02   -0.11791E+04   -0.11083E+04 25680   0.394E+02
DAV:   3    -0.173996783257E+03   -0.11186E+03   -0.11115E+03 27474   0.124E+02
DAV:   4    -0.183649229835E+03   -0.96524E+01   -0.96097E+01 40360   0.296E+01
DAV:   5    -0.185222052814E+03   -0.15728E+01   -0.15724E+01 29968   0.680E+00    0.505E+01
DAV:   6    -0.165293225074E+03    0.19929E+02   -0.89647E+01 26736   0.321E+01    0.256E+01
DAV:   7    -0.167301188872E+03   -0.20080E+01   -0.74603E+00 28208   0.914E+00    0.884E+00
DAV:   8    -0.167584911091E+03   -0.28372E+00   -0.79968E-01 29496   0.353E+00    0.443E+00
DAV:   9    -0.167717582584E+03   -0.13267E+00   -0.13830E-01 29352   0.159E+00    0.178E+00
DAV:  10    -0.167744990797E+03   -0.27408E-01   -0.54164E-02 26208   0.113E+00    0.513E-01
DAV:  11    -0.167755520953E+03   -0.10530E-01   -0.11802E-02 26856   0.451E-01    0.298E-01
DAV:  12    -0.167758295676E+03   -0.27747E-02   -0.20234E-03 27840   0.205E-01    0.159E-01
DAV:  13    -0.167759632164E+03   -0.13365E-02   -0.11184E-03 24736   0.128E-01    0.488E-02
DAV:  14    -0.167759811832E+03   -0.17967E-03   -0.13228E-04 27192   0.568E-02    0.233E-02
DAV:  15    -0.167759875277E+03   -0.63445E-04   -0.67386E-05 22560   0.357E-02    0.145E-02
DAV:  16    -0.167759882854E+03   -0.75766E-05   -0.72044E-06 18336   0.135E-02
   1 F= -.16775988E+03 E0= -.16775988E+03  d E =0.000000E+00  mag=    -0.0011
