 running on    8 total cores
 distrk:  each k-point on    8 cores,    1 groups
 distr:  one band on    1 cores,    8 groups
 using from now: INCAR     
 vasp.6.1.2 22Jul20 (build Mar 20 2021 11:25:07) complex                        
  
 POSCAR found type information on POSCAR LiP 
 POSCAR found :  2 types and       8 ions
 scaLAPACK will be used
 -----------------------------------------------------------------------------
|                                                                             |
|           W    W    AA    RRRRR   N    N  II  N    N   GGGG   !!!           |
|           W    W   A  A   R    R  NN   N  II  NN   N  G    G  !!!           |
|           W    W  A    A  R    R  N N  N  II  N N  N  G       !!!           |
|           W WW W  AAAAAA  RRRRR   N  N N  II  N  N N  G  GGG   !            |
|           WW  WW  A    A  R   R   N   NN  II  N   NN  G    G                |
|           W    W  A    A  R    R  N    N  II  N    N   GGGG   !!!           |
|                                                                             |
|     The value NCORE = 6 specified in the INCAR file was overwritten,        |
|     because it was not compatible with the 8 processes available:           |
|     NCORE = 1                                                               |
|     was used instead, please check that this makes sense for your           |
|     machine.                                                                |
|                                                                             |
 -----------------------------------------------------------------------------

 -----------------------------------------------------------------------------
|                                                                             |
|           W    W    AA    RRRRR   N    N  II  N    N   GGGG   !!!           |
|           W    W   A  A   R    R  NN   N  II  NN   N  G    G  !!!           |
|           W    W  A    A  R    R  N N  N  II  N N  N  G       !!!           |
|           W WW W  AAAAAA  RRRRR   N  N N  II  N  N N  G  GGG   !            |
|           WW  WW  A    A  R   R   N   NN  II  N   NN  G    G                |
|           W    W  A    A  R    R  N    N  II  N    N   GGGG   !!!           |
|                                                                             |
|     For optimal performance we recommend to set                             |
|       NCORE = 4 - approx SQRT(number of cores).                             |
|     NCORE specifies how many cores store one orbital (NPAR=cpu/NCORE).      |
|     This setting can greatly improve the performance of VASP for DFT.       |
|     The default, NCORE=1 might be grossly inefficient on modern             |
|     multi-core architectures or massively parallel machines. Do your        |
|     own testing!!!!                                                         |
|     Unfortunately you need to use the default for GW and RPA                |
|     calculations (for HF NCORE is supported but not extensively tested      |
|     yet).                                                                   |
|                                                                             |
 -----------------------------------------------------------------------------

 -----------------------------------------------------------------------------
|                                                                             |
|               ----> ADVICE to this user running VASP <----                  |
|                                                                             |
|     You have a (more or less) 'small supercell' and for smaller cells       |
|     it is recommended to use the reciprocal-space projection scheme!        |
|     The real-space optimization is not efficient for small cells and it     |
|     is also less accurate ...                                               |
|     Therefore, set LREAL=.FALSE. in the INCAR file.                         |
|                                                                             |
 -----------------------------------------------------------------------------

 LDA part: xc-table for Pade appr. of Perdew
 -----------------------------------------------------------------------------
|                                                                             |
|           W    W    AA    RRRRR   N    N  II  N    N   GGGG   !!!           |
|           W    W   A  A   R    R  NN   N  II  NN   N  G    G  !!!           |
|           W    W  A    A  R    R  N N  N  II  N N  N  G       !!!           |
|           W WW W  AAAAAA  RRRRR   N  N N  II  N  N N  G  GGG   !            |
|           WW  WW  A    A  R   R   N   NN  II  N   NN  G    G                |
|           W    W  A    A  R    R  N    N  II  N    N   GGGG   !!!           |
|                                                                             |
|     The determination of the symmetry of your systems shows a strong        |
|     dependence on the tolerance parameter SYMPREC. This is often the        |
|     result of "noise" in the structural parameters (lattice vectors         |
|     and/or ionic positions). Set NWRITE=3 for more details.                 |
|                                                                             |
 -----------------------------------------------------------------------------

 generate k-points for:    9    9    4
 POSCAR, INCAR and KPOINTS ok, starting setup
 FFT: planning ...
 WAVECAR not read
 entering main loop
       N       E                     dE             d eps       ncg     rms          rms(c)
DAV:   1     0.158356549242E+03    0.15836E+03   -0.11787E+04  3456   0.117E+03
DAV:   2     0.173751895313E+01   -0.15662E+03   -0.14780E+03  3808   0.299E+02
DAV:   3    -0.233445491602E+02   -0.25082E+02   -0.24862E+02  5992   0.697E+01
DAV:   4    -0.264237464118E+02   -0.30792E+01   -0.30541E+01  5272   0.319E+01
DAV:   5    -0.266472630941E+02   -0.22352E+00   -0.22350E+00  5488   0.682E+00    0.148E+01
RMM:   6    -0.270779902765E+02   -0.43073E+00   -0.16614E+00  4181   0.640E+00    0.752E+00
RMM:   7    -0.278007184484E+02   -0.72273E+00   -0.50216E-01  4625   0.438E+00    0.278E+00
RMM:   8    -0.278780568598E+02   -0.77338E-01   -0.38331E-01  5325   0.285E+00    0.115E+00
RMM:   9    -0.278868368318E+02   -0.87800E-02   -0.93229E-02  5608   0.168E+00    0.504E-01
RMM:  10    -0.278948617323E+02   -0.80249E-02   -0.42149E-02  5871   0.100E+00    0.267E-01
RMM:  11    -0.278970826992E+02   -0.22210E-02   -0.15728E-02  6007   0.578E-01    0.193E-01
RMM:  12    -0.278978868647E+02   -0.80417E-03   -0.58869E-03  5869   0.439E-01    0.519E-02
RMM:  13    -0.278984737359E+02   -0.58687E-03   -0.32744E-03  6069   0.263E-01    0.203E-02
RMM:  14    -0.278986765725E+02   -0.20284E-03   -0.15869E-03  5970   0.167E-01    0.226E-02
RMM:  15    -0.278987599364E+02   -0.83364E-04   -0.71818E-04  5278   0.110E-01    0.179E-02
RMM:  16    -0.278987991773E+02   -0.39241E-04   -0.35959E-04  5164   0.780E-02    0.197E-02
WARNING in EDDRMM: call to ZHEGV failed, returncode =   8  4      3
RMM:  17    -0.278988286238E+02   -0.29446E-04   -0.23095E-04  5114   0.715E-02    0.458E-02
RMM:  18    -0.278988211549E+02    0.74689E-05   -0.19308E-04  4961   0.672E-02    0.988E-03
RMM:  19    -0.278988329458E+02   -0.11791E-04   -0.80608E-05  4588   0.414E-02    0.238E-03
RMM:  20    -0.278988368275E+02   -0.38817E-05   -0.44199E-05  3885   0.326E-02
   1 F= -.27898837E+02 E0= -.27898837E+02  d E =0.000000E+00  mag=     0.0000
