 running on    8 total cores
 distrk:  each k-point on    8 cores,    1 groups
 distr:  one band on    1 cores,    8 groups
 using from now: INCAR     
 vasp.6.1.2 22Jul20 (build Mar 20 2021 11:25:07) complex                        
  
 POSCAR found type information on POSCAR LiP 
 POSCAR found :  2 types and      40 ions
 scaLAPACK will be used
 -----------------------------------------------------------------------------
|                                                                             |
|           W    W    AA    RRRRR   N    N  II  N    N   GGGG   !!!           |
|           W    W   A  A   R    R  NN   N  II  NN   N  G    G  !!!           |
|           W    W  A    A  R    R  N N  N  II  N N  N  G       !!!           |
|           W WW W  AAAAAA  RRRRR   N  N N  II  N  N N  G  GGG   !            |
|           WW  WW  A    A  R   R   N   NN  II  N   NN  G    G                |
|           W    W  A    A  R    R  N    N  II  N    N   GGGG   !!!           |
|                                                                             |
|     The value NCORE = 6 specified in the INCAR file was overwritten,        |
|     because it was not compatible with the 8 processes available:           |
|     NCORE = 1                                                               |
|     was used instead, please check that this makes sense for your           |
|     machine.                                                                |
|                                                                             |
 -----------------------------------------------------------------------------

 -----------------------------------------------------------------------------
|                                                                             |
|           W    W    AA    RRRRR   N    N  II  N    N   GGGG   !!!           |
|           W    W   A  A   R    R  NN   N  II  NN   N  G    G  !!!           |
|           W    W  A    A  R    R  N N  N  II  N N  N  G       !!!           |
|           W WW W  AAAAAA  RRRRR   N  N N  II  N  N N  G  GGG   !            |
|           WW  WW  A    A  R   R   N   NN  II  N   NN  G    G                |
|           W    W  A    A  R    R  N    N  II  N    N   GGGG   !!!           |
|                                                                             |
|     For optimal performance we recommend to set                             |
|       NCORE = 4 - approx SQRT(number of cores).                             |
|     NCORE specifies how many cores store one orbital (NPAR=cpu/NCORE).      |
|     This setting can greatly improve the performance of VASP for DFT.       |
|     The default, NCORE=1 might be grossly inefficient on modern             |
|     multi-core architectures or massively parallel machines. Do your        |
|     own testing!!!!                                                         |
|     Unfortunately you need to use the default for GW and RPA                |
|     calculations (for HF NCORE is supported but not extensively tested      |
|     yet).                                                                   |
|                                                                             |
 -----------------------------------------------------------------------------

 LDA part: xc-table for Pade appr. of Perdew
 generate k-points for:    4    3    3
 POSCAR, INCAR and KPOINTS ok, starting setup
 FFT: planning ...
 WAVECAR not read
 entering main loop
       N       E                     dE             d eps       ncg     rms          rms(c)
DAV:   1     0.104385021217E+04    0.10439E+04   -0.68508E+04  6144   0.127E+03
DAV:   2    -0.326921791648E+02   -0.10765E+04   -0.98815E+03  7288   0.278E+02
DAV:   3    -0.166744091223E+03   -0.13405E+03   -0.13224E+03  8264   0.931E+01
DAV:   4    -0.182605546320E+03   -0.15861E+02   -0.15741E+02 11128   0.277E+01
DAV:   5    -0.185478322224E+03   -0.28728E+01   -0.28712E+01  9856   0.785E+00    0.346E+01
DAV:   6    -0.185753765887E+03   -0.27544E+00   -0.86726E+00  8000   0.671E+00    0.191E+01
DAV:   7    -0.187963679927E+03   -0.22099E+01   -0.30971E+00  7776   0.412E+00    0.115E+01
DAV:   8    -0.188817768817E+03   -0.85409E+00   -0.14122E+00  7504   0.296E+00    0.245E+00
DAV:   9    -0.188888024034E+03   -0.70255E-01   -0.19743E-01  8576   0.124E+00    0.116E+00
DAV:  10    -0.188899808119E+03   -0.11784E-01   -0.38159E-02  8016   0.486E-01    0.422E-01
DAV:  11    -0.188903720097E+03   -0.39120E-02   -0.58398E-03  7376   0.237E-01    0.205E-01
DAV:  12    -0.188905566831E+03   -0.18467E-02   -0.21564E-03  8472   0.125E-01    0.104E-01
DAV:  13    -0.188906466743E+03   -0.89991E-03   -0.66415E-04  7656   0.637E-02    0.428E-02
DAV:  14    -0.188906781852E+03   -0.31511E-03   -0.29202E-04  7600   0.410E-02    0.231E-02
DAV:  15    -0.188906860349E+03   -0.78497E-04   -0.82653E-05  6648   0.227E-02    0.118E-02
DAV:  16    -0.188906878311E+03   -0.17962E-04   -0.18289E-05  5992   0.118E-02    0.509E-03
DAV:  17    -0.188906882509E+03   -0.41981E-05   -0.46681E-06  4888   0.648E-03
   1 F= -.18890688E+03 E0= -.18890688E+03  d E =0.000000E+00  mag=    -0.0002
