    9    9    1    2
  0.1054998E+02  0.4924429E-09  0.5003780E-09  0.5003779E-09  0.5000000E-15
  1.000000000000000E-004
  CAR 
 unknown system                          
     51    116     40
 
  0.0000000E+00  0.0000000E+00  0.0000000E+00  0.2551020E-02
    1      -43.592353    -43.592113   1.000000   1.000000
    2      -26.325412    -26.324967   1.000000   1.000000
    3      -25.171919    -25.170582   1.000000   1.000000
    4      -25.163011    -25.164763   1.000000   1.000000
    5      -24.513889    -24.511936   1.000000   1.000000
    6      -13.956819    -13.956655   1.000000   1.000000
    7      -13.185823    -13.188345   1.000000   1.000000
    8      -13.128650    -13.124070   1.000000   1.000000
    9      -12.114764    -12.114366   1.000000   1.000000
   10       -8.224595     -8.224484   1.000000   1.000000
   11       -7.828569     -7.827887   1.000000   1.000000
   12       -7.599889     -7.599780   1.000000   1.000000
   13       -7.187499     -7.187516   1.000000   1.000000
   14       -6.494210     -6.492644   1.000000   1.000000
   15       -5.881627     -5.879764   1.000000   1.000000
   16       -5.759186     -5.760286   1.000000   1.000000
   17       -5.735023     -5.734265   1.000000   1.000000
   18       -3.916308     -3.913510   1.000000   1.000000
   19       -3.884048     -3.884459   1.000000   1.000000
   20       -3.745600     -3.744606   1.000000   1.000000
   21       -3.588641     -3.588662   1.000000   1.000000
   22       -1.075016     -1.074946   1.000000   1.000000
   23       -0.965271     -0.964017   1.000000   1.000000
   24       -0.293679     -0.293839   1.000000   1.000000
   25        0.552783      0.554725   1.000000   1.000000
   26        2.326681      2.330023   0.000000   0.000000
   27        2.410577      2.411726   0.000000   0.000000
   28        2.462876      2.462619   0.000000   0.000000
   29        2.750288      2.749999   0.000000   0.000000
   30        8.823162      8.821912   0.000000   0.000000
   31        9.006567      9.008743   0.000000   0.000000
   32        9.879674      9.880325   0.000000   0.000000
   33       10.861049     10.859974   0.000000   0.000000
   34       11.188697     11.190101   0.000000   0.000000
   35       12.607129     12.607192   0.000000   0.000000
   36       13.210947     13.210619   0.000000   0.000000
   37       13.752445     13.753250   0.000000   0.000000
   38       14.028016     14.027913   0.000000   0.000000
   39       14.480287     14.480348   0.000000   0.000000
   40       15.036202     15.036369   0.000000   0.000000
 
  0.1250000E+00 -0.2073252E-16  0.4982758E-14  0.5102041E-02
    1      -43.592312    -43.592072   1.000000   1.000000
    2      -26.322472    -26.322025   1.000000   1.000000
    3      -25.172812    -25.171470   1.000000   1.000000
    4      -25.165718    -25.167470   1.000000   1.000000
    5      -24.514060    -24.512113   1.000000   1.000000
    6      -14.032759    -14.032555   1.000000   1.000000
    7      -13.142508    -13.145042   1.000000   1.000000
    8      -13.094245    -13.089719   1.000000   1.000000
    9      -12.114734    -12.114307   1.000000   1.000000
   10       -8.207865     -8.207765   1.000000   1.000000
   11       -7.849865     -7.849179   1.000000   1.000000
   12       -7.474401     -7.474321   1.000000   1.000000
   13       -7.180739     -7.180716   1.000000   1.000000
   14       -6.512185     -6.510763   1.000000   1.000000
   15       -6.022816     -6.021067   1.000000   1.000000
   16       -5.811018     -5.811955   1.000000   1.000000
   17       -5.654869     -5.654022   1.000000   1.000000
   18       -3.916427     -3.913651   1.000000   1.000000
   19       -3.881493     -3.881901   1.000000   1.000000
   20       -3.740968     -3.739966   1.000000   1.000000
   21       -3.585556     -3.585572   1.000000   1.000000
   22       -1.071595     -1.071521   1.000000   1.000000
   23       -0.930606     -0.929383   1.000000   1.000000
   24       -0.299049     -0.299182   1.000000   1.000000
   25        0.505569      0.507480   1.000000   1.000000
   26        2.323113      2.326518   0.000000   0.000000
   27        2.395816      2.396736   0.000000   0.000000
   28        2.470085      2.470011   0.000000   0.000000
   29        2.745515      2.745247   0.000000   0.000000
   30        9.096051      9.097555   0.000000   0.000000
   31        9.098807      9.097883   0.000000   0.000000
   32        9.383893      9.384602   0.000000   0.000000
   33       10.852421     10.851827   0.000000   0.000000
   34       11.167145     11.168344   0.000000   0.000000
   35       12.623615     12.623662   0.000000   0.000000
   36       13.194701     13.194712   0.000000   0.000000
   37       13.309524     13.310336   0.000000   0.000000
   38       14.139577     14.138988   0.000000   0.000000
   39       14.615456     14.605881   0.000000   0.000000
   40       15.209779     15.216384   0.000000   0.000000
 
  0.2500000E+00 -0.3545345E-16 -0.4575560E-14  0.5102041E-02
    1      -43.592231    -43.591991   1.000000   1.000000
    2      -26.315641    -26.315191   1.000000   1.000000
    3      -25.175068    -25.174041   1.000000   1.000000
    4      -25.172289    -25.173713   1.000000   1.000000
    5      -24.514342    -24.512411   1.000000   1.000000
    6      -14.205879    -14.205619   1.000000   1.000000
    7      -13.034568    -13.037129   1.000000   1.000000
    8      -13.003019    -12.998547   1.000000   1.000000
    9      -12.123232    -12.122772   1.000000   1.000000
   10       -8.190874     -8.190788   1.000000   1.000000
   11       -7.894206     -7.893517   1.000000   1.000000
   12       -7.278632     -7.278734   1.000000   1.000000
   13       -7.019235     -7.019026   1.000000   1.000000
   14       -6.584263     -6.583308   1.000000   1.000000
   15       -6.228854     -6.226992   1.000000   1.000000
   16       -5.922721     -5.923137   1.000000   1.000000
   17       -5.618850     -5.618166   1.000000   1.000000
   18       -3.916230     -3.913506   1.000000   1.000000
   19       -3.873685     -3.874092   1.000000   1.000000
   20       -3.730160     -3.729132   1.000000   1.000000
   21       -3.578427     -3.578431   1.000000   1.000000
   22       -1.052901     -1.052811   1.000000   1.000000
   23       -0.827907     -0.826778   1.000000   1.000000
   24       -0.308228     -0.308293   1.000000   1.000000
   25        0.393696      0.395561   1.000000   1.000000
   26        2.316386      2.319954   0.000000   0.000000
   27        2.375037      2.375833   0.000000   0.000000
   28        2.472817      2.472750   0.000000   0.000000
   29        2.732569      2.732331   0.000000   0.000000
   30        8.160044      8.160525   0.000000   0.000000
   31        9.647318      9.648968   0.000000   0.000000
   32        9.772366      9.771127   0.000000   0.000000
   33       10.630336     10.630688   0.000000   0.000000
   34       11.362319     11.362927   0.000000   0.000000
   35       12.639149     12.639053   0.000000   0.000000
   36       12.666134     12.666823   0.000000   0.000000
   37       13.285118     13.285285   0.000000   0.000000
   38       13.838276     13.839187   0.000000   0.000000
   39       14.894921     14.902678   0.000000   0.000000
   40       15.050485     15.049151   0.000000   0.000000
 
  0.3750000E+00 -0.2929584E-16  0.4073301E-15  0.5102041E-02
    1      -43.592162    -43.591922   1.000000   1.000000
    2      -26.308656    -26.308202   1.000000   1.000000
    3      -25.178902    -25.180655   1.000000   1.000000
    4      -25.177341    -25.175975   1.000000   1.000000
    5      -24.514691    -24.512776   1.000000   1.000000
    6      -14.366407    -14.366117   1.000000   1.000000
    7      -12.921537    -12.924128   1.000000   1.000000
    8      -12.895997    -12.891462   1.000000   1.000000
    9      -12.149218    -12.148814   1.000000   1.000000
   10       -8.182365     -8.182289   1.000000   1.000000
   11       -7.925927     -7.925238   1.000000   1.000000
   12       -7.238712     -7.238818   1.000000   1.000000
   13       -6.712037     -6.711629   1.000000   1.000000
   14       -6.666266     -6.666133   1.000000   1.000000
   15       -6.398468     -6.396430   1.000000   1.000000
   16       -6.000906     -6.000711   1.000000   1.000000
   17       -5.650892     -5.650359   1.000000   1.000000
   18       -3.915364     -3.912686   1.000000   1.000000
   19       -3.864039     -3.864453   1.000000   1.000000
   20       -3.719702     -3.718641   1.000000   1.000000
   21       -3.571754     -3.571748   1.000000   1.000000
   22       -1.021627     -1.021516   1.000000   1.000000
   23       -0.702386     -0.701392   1.000000   1.000000
   24       -0.312775     -0.312768   1.000000   1.000000
   25        0.285070      0.286932   1.000000   1.000000
   26        2.312641      2.316402   0.000000   0.000000
   27        2.364269      2.365098   0.000000   0.000000
   28        2.465633      2.465401   0.000000   0.000000
   29        2.717202      2.716964   0.000000   0.000000
   30        7.260823      7.261208   0.000000   0.000000
   31       10.065119     10.066036   0.000000   0.000000
   32       10.358700     10.357664   0.000000   0.000000
   33       10.562293     10.563319   0.000000   0.000000
   34       11.424281     11.425031   0.000000   0.000000
   35       12.514280     12.514628   0.000000   0.000000
   36       12.536656     12.536986   0.000000   0.000000
   37       13.444464     13.445141   0.000000   0.000000
   38       13.697459     13.697928   0.000000   0.000000
   39       14.411976     14.411858   0.000000   0.000000
   40       14.905588     14.933542   0.000000   0.000000
 
  0.5000000E+00 -0.1707341E-16  0.5429656E-14  0.2551020E-02
    1      -43.592111    -43.591871   1.000000   1.000000
    2      -26.305685    -26.305229   1.000000   1.000000
    3      -25.181671    -25.183423   1.000000   1.000000
    4      -25.178214    -25.176843   1.000000   1.000000
    5      -24.514880    -24.512971   1.000000   1.000000
    6      -14.429662    -14.429364   1.000000   1.000000
    7      -12.873102    -12.875706   1.000000   1.000000
    8      -12.844676    -12.840056   1.000000   1.000000
    9      -12.167643    -12.167317   1.000000   1.000000
   10       -8.177843     -8.177771   1.000000   1.000000
   11       -7.934065     -7.933376   1.000000   1.000000
   12       -7.225706     -7.225811   1.000000   1.000000
   13       -6.783705     -6.783496   1.000000   1.000000
   14       -6.522647     -6.522534   1.000000   1.000000
   15       -6.450184     -6.448093   1.000000   1.000000
   16       -6.021842     -6.021419   1.000000   1.000000
   17       -5.676810     -5.676334   1.000000   1.000000
   18       -3.914811     -3.912151   1.000000   1.000000
   19       -3.859665     -3.860084   1.000000   1.000000
   20       -3.715428     -3.714350   1.000000   1.000000
   21       -3.569129     -3.569119   1.000000   1.000000
   22       -1.005322     -1.005203   1.000000   1.000000
   23       -0.644835     -0.643916   1.000000   1.000000
   24       -0.313891     -0.313851   1.000000   1.000000
   25        0.241329      0.243206   1.000000   1.000000
   26        2.312095      2.315951   0.000000   0.000000
   27        2.362005      2.362887   0.000000   0.000000
   28        2.460614      2.460271   0.000000   0.000000
   29        2.710037      2.709786   0.000000   0.000000
   30        6.920386      6.920749   0.000000   0.000000
   31       10.148428     10.148942   0.000000   0.000000
   32       10.491452     10.490648   0.000000   0.000000
   33       10.767828     10.768954   0.000000   0.000000
   34       11.254328     11.255493   0.000000   0.000000
   35       12.508188     12.508609   0.000000   0.000000
   36       12.925253     12.925145   0.000000   0.000000
   37       13.317364     13.317804   0.000000   0.000000
   38       13.813459     13.813533   0.000000   0.000000
   39       13.975025     13.975666   0.000000   0.000000
   40       14.707851     14.751909   0.000000   0.000000
 
  0.1924744E-17  0.1428571E+00  0.2112194E-14  0.1020408E-01
    1      -43.592333    -43.592093   1.000000   1.000000
    2      -26.310451    -26.309992   1.000000   1.000000
    3      -25.216245    -25.216701   1.000000   1.000000
    4      -25.128240    -25.128202   1.000000   1.000000
    5      -24.525384    -24.523442   1.000000   1.000000
    6      -13.949226    -13.949090   1.000000   1.000000
    7      -13.207778    -13.208719   1.000000   1.000000
    8      -13.113507    -13.110461   1.000000   1.000000
    9      -12.128768    -12.128392   1.000000   1.000000
   10       -8.177569     -8.177441   1.000000   1.000000
   11       -7.795040     -7.794426   1.000000   1.000000
   12       -7.523974     -7.523863   1.000000   1.000000
   13       -7.120531     -7.120519   1.000000   1.000000
   14       -6.527407     -6.525882   1.000000   1.000000
   15       -5.928840     -5.927493   1.000000   1.000000
   16       -5.776203     -5.776719   1.000000   1.000000
   17       -5.713591     -5.712903   1.000000   1.000000
   18       -4.049736     -4.047461   1.000000   1.000000
   19       -3.932025     -3.931700   1.000000   1.000000
   20       -3.767432     -3.766782   1.000000   1.000000
   21       -3.613078     -3.612912   1.000000   1.000000
   22       -1.036734     -1.036460   1.000000   1.000000
   23       -0.863455     -0.862492   1.000000   1.000000
   24       -0.221092     -0.221219   1.000000   1.000000
   25        0.498913      0.500742   1.000000   1.000000
   26        2.197428      2.200452   0.000000   0.000000
   27        2.366909      2.368170   0.000000   0.000000
   28        2.466588      2.466637   0.000000   0.000000
   29        2.711707      2.711505   0.000000   0.000000
   30        8.877867      8.876701   0.000000   0.000000
   31        8.989773      8.991928   0.000000   0.000000
   32        9.906442      9.906960   0.000000   0.000000
   33       10.791230     10.790412   0.000000   0.000000
   34       11.243508     11.244701   0.000000   0.000000
   35       12.695626     12.695530   0.000000   0.000000
   36       13.292725     13.292610   0.000000   0.000000
   37       13.556385     13.556945   0.000000   0.000000
   38       14.072698     14.072814   0.000000   0.000000
   39       14.551236     14.550925   0.000000   0.000000
   40       15.122128     15.119567   0.000000   0.000000
 
  0.1250000E+00  0.1428571E+00 -0.6004589E-17  0.1020408E-01
    1      -43.592316    -43.592076   1.000000   1.000000
    2      -26.309910    -26.309451   1.000000   1.000000
    3      -25.215954    -25.216387   1.000000   1.000000
    4      -25.128819    -25.128801   1.000000   1.000000
    5      -24.525982    -24.524042   1.000000   1.000000
    6      -13.963040    -13.962863   1.000000   1.000000
    7      -13.225123    -13.226124   1.000000   1.000000
    8      -13.088310    -13.085230   1.000000   1.000000
    9      -12.120978    -12.120610   1.000000   1.000000
   10       -8.171357     -8.171236   1.000000   1.000000
   11       -7.788848     -7.788241   1.000000   1.000000
   12       -7.508505     -7.508375   1.000000   1.000000
   13       -7.139601     -7.139597   1.000000   1.000000
   14       -6.524415     -6.522865   1.000000   1.000000
   15       -5.951468     -5.950031   1.000000   1.000000
   16       -5.780324     -5.781088   1.000000   1.000000
   17       -5.696751     -5.695943   1.000000   1.000000
   18       -4.059620     -4.057393   1.000000   1.000000
   19       -3.920682     -3.920365   1.000000   1.000000
   20       -3.767291     -3.766552   1.000000   1.000000
   21       -3.615712     -3.615569   1.000000   1.000000
   22       -1.020528     -1.020245   1.000000   1.000000
   23       -0.853518     -0.852556   1.000000   1.000000
   24       -0.233062     -0.233156   1.000000   1.000000
   25        0.488813      0.490698   1.000000   1.000000
   26        2.210109      2.213052   0.000000   0.000000
   27        2.339553      2.340660   0.000000   0.000000
   28        2.474998      2.475101   0.000000   0.000000
   29        2.712711      2.712551   0.000000   0.000000
   30        8.759914      8.759423   0.000000   0.000000
   31        9.127744      9.129246   0.000000   0.000000
   32        9.728294      9.728746   0.000000   0.000000
   33       10.951044     10.950212   0.000000   0.000000
   34       11.219320     11.220663   0.000000   0.000000
   35       12.717999     12.718007   0.000000   0.000000
   36       13.253263     13.253176   0.000000   0.000000
   37       13.628124     13.628848   0.000000   0.000000
   38       14.133915     14.134200   0.000000   0.000000
   39       14.401468     14.404075   0.000000   0.000000
   40       15.055098     15.054167   0.000000   0.000000
 
  0.2500000E+00  0.1428571E+00 -0.2465035E-14  0.1020408E-01
    1      -43.592266    -43.592026   1.000000   1.000000
    2      -26.304633    -26.304172   1.000000   1.000000
    3      -25.218386    -25.218858   1.000000   1.000000
    4      -25.133166    -25.133099   1.000000   1.000000
    5      -24.526585    -24.524658   1.000000   1.000000
    6      -14.099841    -14.099589   1.000000   1.000000
    7      -13.171179    -13.171945   1.000000   1.000000
    8      -12.996933    -12.994165   1.000000   1.000000
    9      -12.122608    -12.122228   1.000000   1.000000
   10       -8.145398     -8.145288   1.000000   1.000000
   11       -7.814409     -7.813801   1.000000   1.000000
   12       -7.306234     -7.306216   1.000000   1.000000
   13       -7.100891     -7.100752   1.000000   1.000000
   14       -6.557799     -6.556495   1.000000   1.000000
   15       -6.129958     -6.128325   1.000000   1.000000
   16       -5.873738     -5.874451   1.000000   1.000000
   17       -5.644030     -5.643251   1.000000   1.000000
   18       -4.066224     -4.064038   1.000000   1.000000
   19       -3.906447     -3.906141   1.000000   1.000000
   20       -3.760074     -3.759275   1.000000   1.000000
   21       -3.612062     -3.611927   1.000000   1.000000
   22       -0.984753     -0.984560   1.000000   1.000000
   23       -0.793011     -0.792024   1.000000   1.000000
   24       -0.248827     -0.248842   1.000000   1.000000
   25        0.401536      0.403427   1.000000   1.000000
   26        2.210864      2.213739   0.000000   0.000000
   27        2.310499      2.311561   0.000000   0.000000
   28        2.477855      2.477978   0.000000   0.000000
   29        2.705399      2.705295   0.000000   0.000000
   30        8.674537      8.675026   0.000000   0.000000
   31        9.084764      9.084803   0.000000   0.000000
   32        9.678708      9.679405   0.000000   0.000000
   33       10.918469     10.918463   0.000000   0.000000
   34       11.301303     11.302083   0.000000   0.000000
   35       12.694179     12.693769   0.000000   0.000000
   36       13.021969     13.022655   0.000000   0.000000
   37       13.315814     13.315844   0.000000   0.000000
   38       13.993286     13.991752   0.000000   0.000000
   39       14.835211     14.780737   0.000000   0.000000
   40       15.099079     15.106855   0.000000   0.000000
 
  0.3750000E+00  0.1428571E+00  0.2547015E-14  0.1020408E-01
    1      -43.592171    -43.591931   1.000000   1.000000
    2      -26.297650    -26.297184   1.000000   1.000000
    3      -25.222051    -25.222607   1.000000   1.000000
    4      -25.138335    -25.138172   1.000000   1.000000
    5      -24.526730    -24.524820   1.000000   1.000000
    6      -14.270880    -14.270592   1.000000   1.000000
    7      -13.062480    -13.063113   1.000000   1.000000
    8      -12.886378    -12.883719   1.000000   1.000000
    9      -12.146139    -12.145811   1.000000   1.000000
   10       -8.134222     -8.134115   1.000000   1.000000
   11       -7.851653     -7.851047   1.000000   1.000000
   12       -7.228125     -7.228188   1.000000   1.000000
   13       -6.783306     -6.783092   1.000000   1.000000
   14       -6.651777     -6.650996   1.000000   1.000000
   15       -6.310690     -6.308916   1.000000   1.000000
   16       -5.993045     -5.993148   1.000000   1.000000
   17       -5.653152     -5.652591   1.000000   1.000000
   18       -4.064769     -4.062598   1.000000   1.000000
   19       -3.897057     -3.896753   1.000000   1.000000
   20       -3.749689     -3.748899   1.000000   1.000000
   21       -3.604701     -3.604552   1.000000   1.000000
   22       -0.944587     -0.944439   1.000000   1.000000
   23       -0.688258     -0.687361   1.000000   1.000000
   24       -0.252976     -0.252905   1.000000   1.000000
   25        0.290306      0.292202   1.000000   1.000000
   26        2.201745      2.204610   0.000000   0.000000
   27        2.297067      2.298207   0.000000   0.000000
   28        2.472095      2.472201   0.000000   0.000000
   29        2.691388      2.691296   0.000000   0.000000
   30        7.658874      7.659273   0.000000   0.000000
   31        9.634267      9.634529   0.000000   0.000000
   32       10.284263     10.284412   0.000000   0.000000
   33       10.739056     10.739772   0.000000   0.000000
   34       11.426102     11.426621   0.000000   0.000000
   35       12.463605     12.463988   0.000000   0.000000
   36       12.700701     12.701206   0.000000   0.000000
   37       13.594889     13.595319   0.000000   0.000000
   38       13.817835     13.817271   0.000000   0.000000
   39       14.589985     14.598571   0.000000   0.000000
   40       14.965585     14.985481   0.000000   0.000000
 
  0.5000000E+00  0.1428571E+00  0.9845975E-16  0.1020408E-01
    1      -43.592127    -43.591887   1.000000   1.000000
    2      -26.293066    -26.292597   1.000000   1.000000
    3      -25.224991    -25.225622   1.000000   1.000000
    4      -25.141422    -25.141177   1.000000   1.000000
    5      -24.526521    -24.524621   1.000000   1.000000
    6      -14.378637    -14.378344   1.000000   1.000000
    7      -12.959377    -12.960041   1.000000   1.000000
    8      -12.826379    -12.823607   1.000000   1.000000
    9      -12.174031    -12.173791   1.000000   1.000000
   10       -8.129091     -8.128993   1.000000   1.000000
   11       -7.883096     -7.882480   1.000000   1.000000
   12       -7.188442     -7.188511   1.000000   1.000000
   13       -6.762456     -6.762099   1.000000   1.000000
   14       -6.520551     -6.520527   1.000000   1.000000
   15       -6.431328     -6.429300   1.000000   1.000000
   16       -6.050781     -6.050397   1.000000   1.000000
   17       -5.670315     -5.669864   1.000000   1.000000
   18       -4.056342     -4.054155   1.000000   1.000000
   19       -3.897722     -3.897414   1.000000   1.000000
   20       -3.743289     -3.742559   1.000000   1.000000
   21       -3.597954     -3.597778   1.000000   1.000000
   22       -0.924832     -0.924688   1.000000   1.000000
   23       -0.608553     -0.607788   1.000000   1.000000
   24       -0.243814     -0.243687   1.000000   1.000000
   25        0.221118      0.223014   1.000000   1.000000
   26        2.189218      2.192196   0.000000   0.000000
   27        2.305544      2.306750   0.000000   0.000000
   28        2.462501      2.462583   0.000000   0.000000
   29        2.678482      2.678350   0.000000   0.000000
   30        7.067354      7.067725   0.000000   0.000000
   31       10.119331     10.119616   0.000000   0.000000
   32       10.420139     10.420008   0.000000   0.000000
   33       10.833485     10.834321   0.000000   0.000000
   34       11.255760     11.256723   0.000000   0.000000
   35       12.542131     12.542509   0.000000   0.000000
   36       12.845579     12.845620   0.000000   0.000000
   37       13.488241     13.488289   0.000000   0.000000
   38       13.819053     13.819387   0.000000   0.000000
   39       14.183616     14.186678   0.000000   0.000000
   40       14.841276     14.856849   0.000000   0.000000
 
 -0.3750000E+00  0.1428571E+00 -0.3637496E-15  0.1020408E-01
    1      -43.592140    -43.591901   1.000000   1.000000
    2      -26.293679    -26.293210   1.000000   1.000000
    3      -25.225356    -25.226008   1.000000   1.000000
    4      -25.140703    -25.140439   1.000000   1.000000
    5      -24.525961    -24.524059   1.000000   1.000000
    6      -14.368799    -14.368519   1.000000   1.000000
    7      -12.943105    -12.943282   1.000000   1.000000
    8      -12.855666    -12.853458   1.000000   1.000000
    9      -12.170701    -12.170378   1.000000   1.000000
   10       -8.133671     -8.133576   1.000000   1.000000
   11       -7.900944     -7.900317   1.000000   1.000000
   12       -7.164815     -7.164904   1.000000   1.000000
   13       -6.763368     -6.763038   1.000000   1.000000
   14       -6.546457     -6.546381   1.000000   1.000000
   15       -6.432753     -6.430766   1.000000   1.000000
   16       -6.047395     -6.046993   1.000000   1.000000
   17       -5.648069     -5.647594   1.000000   1.000000
   18       -4.046768     -4.044539   1.000000   1.000000
   19       -3.908403     -3.908096   1.000000   1.000000
   20       -3.744965     -3.744308   1.000000   1.000000
   21       -3.595334     -3.595138   1.000000   1.000000
   22       -0.944278     -0.944140   1.000000   1.000000
   23       -0.621170     -0.620395   1.000000   1.000000
   24       -0.232217     -0.232106   1.000000   1.000000
   25        0.231146      0.232977   1.000000   1.000000
   26        2.178469      2.181561   0.000000   0.000000
   27        2.330396      2.331666   0.000000   0.000000
   28        2.456197      2.456256   0.000000   0.000000
   29        2.677160      2.676985   0.000000   0.000000
   30        7.116457      7.116836   0.000000   0.000000
   31       10.093471     10.094260   0.000000   0.000000
   32       10.518890     10.518694   0.000000   0.000000
   33       10.703109     10.703229   0.000000   0.000000
   34       11.443110     11.444265   0.000000   0.000000
   35       12.386488     12.386576   0.000000   0.000000
   36       12.670880     12.671140   0.000000   0.000000
   37       13.454743     13.453087   0.000000   0.000000
   38       13.816674     13.817455   0.000000   0.000000
   39       14.314751     14.314178   0.000000   0.000000
   40       15.015447     14.966774   0.000000   0.000000
 
 -0.2500000E+00  0.1428571E+00  0.4613870E-14  0.1020408E-01
    1      -43.592206    -43.591967   1.000000   1.000000
    2      -26.298989    -26.298523   1.000000   1.000000
    3      -25.222841    -25.223447   1.000000   1.000000
    4      -25.136636    -25.136428   1.000000   1.000000
    5      -24.525312    -24.523397   1.000000   1.000000
    6      -14.245217    -14.244969   1.000000   1.000000
    7      -13.029281    -13.028660   1.000000   1.000000
    8      -12.943933    -12.942615   1.000000   1.000000
    9      -12.149177    -12.148740   1.000000   1.000000
   10       -8.143782     -8.143678   1.000000   1.000000
   11       -7.885465     -7.884835   1.000000   1.000000
   12       -7.175799     -7.175917   1.000000   1.000000
   13       -6.833511     -6.833288   1.000000   1.000000
   14       -6.659761     -6.659066   1.000000   1.000000
   15       -6.314213     -6.312405   1.000000   1.000000
   16       -5.987075     -5.987104   1.000000   1.000000
   17       -5.608141     -5.607544   1.000000   1.000000
   18       -4.041630     -4.039354   1.000000   1.000000
   19       -3.923568     -3.923259   1.000000   1.000000
   20       -3.752407     -3.751803   1.000000   1.000000
   21       -3.598419     -3.598219   1.000000   1.000000
   22       -0.989226     -0.989088   1.000000   1.000000
   23       -0.717344     -0.716439   1.000000   1.000000
   24       -0.225257     -0.225239   1.000000   1.000000
   25        0.314752      0.316504   1.000000   1.000000
   26        2.174412      2.177530   0.000000   0.000000
   27        2.358110      2.359472   0.000000   0.000000
   28        2.455381      2.455402   0.000000   0.000000
   29        2.688564      2.688373   0.000000   0.000000
   30        7.796270      7.796723   0.000000   0.000000
   31        9.642328      9.643362   0.000000   0.000000
   32       10.357530     10.356559   0.000000   0.000000
   33       10.726432     10.726842   0.000000   0.000000
   34       11.362978     11.363764   0.000000   0.000000
   35       12.190474     12.191231   0.000000   0.000000
   36       12.777683     12.777150   0.000000   0.000000
   37       13.403527     13.403925   0.000000   0.000000
   38       13.789290     13.793083   0.000000   0.000000
   39       14.936706     15.030437   0.000000   0.000000
   40       15.196545     15.421124   0.000000   0.000000
 
 -0.1250000E+00  0.1428571E+00 -0.4919459E-14  0.1020408E-01
    1      -43.592284    -43.592044   1.000000   1.000000
    2      -26.305931    -26.305469   1.000000   1.000000
    3      -25.219024    -25.219552   1.000000   1.000000
    4      -25.131527    -25.131410   1.000000   1.000000
    5      -24.525105    -24.523173   1.000000   1.000000
    6      -14.070393    -14.070205   1.000000   1.000000
    7      -13.133922    -13.133904   1.000000   1.000000
    8      -13.053754    -13.051769   1.000000   1.000000
    9      -12.136081    -12.135654   1.000000   1.000000
   10       -8.155605     -8.155488   1.000000   1.000000
   11       -7.837351     -7.836725   1.000000   1.000000
   12       -7.315245     -7.315239   1.000000   1.000000
   13       -7.086179     -7.086060   1.000000   1.000000
   14       -6.566349     -6.565125   1.000000   1.000000
   15       -6.118888     -6.117268   1.000000   1.000000
   16       -5.872871     -5.873436   1.000000   1.000000
   17       -5.622149     -5.621383   1.000000   1.000000
   18       -4.042755     -4.040460   1.000000   1.000000
   19       -3.933610     -3.933291   1.000000   1.000000