 running on   12 total cores
 distrk:  each k-point on   12 cores,    1 groups
 distr:  one band on    6 cores,    2 groups
 using from now: INCAR     
 vasp.6.1.2 22Jul20 (build Mar 20 2021 11:25:07) complex                        
  
 POSCAR found type information on POSCAR LiP O 
 POSCAR found :  3 types and      26 ions
 scaLAPACK will be used
 LDA part: xc-table for Pade appr. of Perdew
 -----------------------------------------------------------------------------
|                                                                             |
|           W    W    AA    RRRRR   N    N  II  N    N   GGGG   !!!           |
|           W    W   A  A   R    R  NN   N  II  NN   N  G    G  !!!           |
|           W    W  A    A  R    R  N N  N  II  N N  N  G       !!!           |
|           W WW W  AAAAAA  RRRRR   N  N N  II  N  N N  G  GGG   !            |
|           WW  WW  A    A  R   R   N   NN  II  N   NN  G    G                |
|           W    W  A    A  R    R  N    N  II  N    N   GGGG   !!!           |
|                                                                             |
|     The determination of the symmetry of your systems shows a strong        |
|     dependence on the tolerance parameter SYMPREC. This is often the        |
|     result of "noise" in the structural parameters (lattice vectors         |
|     and/or ionic positions). Set NWRITE=3 for more details.                 |
|                                                                             |
 -----------------------------------------------------------------------------

 generate k-points for:    7    5    4
 POSCAR, INCAR and KPOINTS ok, starting setup
 FFT: planning ...
 WAVECAR not read
 entering main loop
       N       E                     dE             d eps       ncg     rms          rms(c)
DAV:   1     0.111388537426E+04    0.11139E+04   -0.61968E+04 24424   0.152E+03
DAV:   2    -0.632656125840E+02   -0.11772E+04   -0.11067E+04 29384   0.393E+02
DAV:   3    -0.174419616599E+03   -0.11115E+03   -0.11045E+03 31570   0.124E+02
DAV:   4    -0.184124596748E+03   -0.97050E+01   -0.96648E+01 45896   0.296E+01
DAV:   5    -0.185689894853E+03   -0.15653E+01   -0.15648E+01 34400   0.686E+00    0.500E+01
DAV:   6    -0.165775298160E+03    0.19915E+02   -0.89473E+01 30562   0.320E+01    0.245E+01
DAV:   7    -0.167806687382E+03   -0.20314E+01   -0.73508E+00 32064   0.904E+00    0.884E+00
DAV:   8    -0.168088596950E+03   -0.28191E+00   -0.77509E-01 32720   0.352E+00    0.443E+00
DAV:   9    -0.168224427886E+03   -0.13583E+00   -0.13804E-01 33536   0.161E+00    0.166E+00
DAV:  10    -0.168249411152E+03   -0.24983E-01   -0.50877E-02 30360   0.109E+00    0.505E-01
DAV:  11    -0.168260062914E+03   -0.10652E-01   -0.11445E-02 30216   0.441E-01    0.301E-01
DAV:  12    -0.168262710855E+03   -0.26479E-02   -0.19820E-03 32296   0.201E-01    0.155E-01
DAV:  13    -0.168263958663E+03   -0.12478E-02   -0.10910E-03 28472   0.126E-01    0.460E-02
DAV:  14    -0.168264127866E+03   -0.16920E-03   -0.14115E-04 32416   0.594E-02    0.217E-02
DAV:  15    -0.168264186173E+03   -0.58307E-04   -0.64890E-05 25488   0.357E-02    0.135E-02
DAV:  16    -0.168264192747E+03   -0.65744E-05   -0.78684E-06 21064   0.142E-02
   1 F= -.16826419E+03 E0= -.16826419E+03  d E =0.000000E+00  mag=    -0.0013
