    8    8    1    2
  0.8603660E+01  0.3243969E-09  0.3180362E-09  0.7703522E-09  0.5000000E-15
  1.000000000000000E-004
  CAR 
 unknown system                          
     36    201     26
 
  0.0000000E+00  0.0000000E+00  0.0000000E+00  0.1893939E-02
    1      -42.006218    -42.006063   1.000000   1.000000
    2      -42.000972    -42.000817   1.000000   1.000000
    3      -41.596895    -41.596768   1.000000   1.000000
    4      -41.592467    -41.592339   1.000000   1.000000
    5      -18.243634    -18.243668   1.000000   1.000000
    6      -18.061248    -18.061285   1.000000   1.000000
    7      -13.236780    -13.236812   1.000000   1.000000
    8      -12.538551    -12.538596   1.000000   1.000000
    9       -4.112862     -4.112862   1.000000   1.000000
   10       -2.387659     -2.387685   1.000000   1.000000
   11       -1.184716     -1.184752   1.000000   1.000000
   12       -1.120237     -1.120274   1.000000   1.000000
   13       -1.021058     -1.021097   1.000000   1.000000
   14       -0.961027     -0.961066   1.000000   1.000000
   15        1.934541      1.934492   1.000000   1.000000
   16        1.987482      1.987435   1.000000   1.000000
   17        2.186318      2.186265   1.000000   1.000000
   18        2.230691      2.230638   1.000000   1.000000
   19        4.276301      4.276295   0.000000   0.000000
   20        6.488794      6.488752   0.000000   0.000000
   21        8.071383      8.071384   0.000000   0.000000
   22        8.403632      8.403658   0.000000   0.000000
   23       10.679943     10.679943   0.000000   0.000000
   24       10.820249     10.820229   0.000000   0.000000
   25       13.482851     13.483521   0.000000   0.000000
   26       13.787254     13.800549   0.000000   0.000000
 
  0.9090909E-01 -0.6400879E-17  0.0000000E+00  0.3787879E-02
    1      -42.005217    -42.005062   1.000000   1.000000
    2      -42.000296    -42.000141   1.000000   1.000000
    3      -41.595781    -41.595654   1.000000   1.000000
    4      -41.591669    -41.591541   1.000000   1.000000
    5      -18.231846    -18.231880   1.000000   1.000000
    6      -18.054034    -18.054070   1.000000   1.000000
    7      -13.206076    -13.206108   1.000000   1.000000
    8      -12.523968    -12.524012   1.000000   1.000000
    9       -4.094507     -4.094508   1.000000   1.000000
   10       -2.401322     -2.401348   1.000000   1.000000
   11       -1.361779     -1.361813   1.000000   1.000000
   12       -1.191761     -1.191797   1.000000   1.000000
   13       -1.138698     -1.138735   1.000000   1.000000
   14       -0.988475     -0.988514   1.000000   1.000000
   15        1.729687      1.729642   1.000000   1.000000
   16        1.916566      1.916519   1.000000   1.000000
   17        2.034964      2.034914   1.000000   1.000000
   18        2.238917      2.238864   1.000000   1.000000
   19        4.353901      4.353892   0.000000   0.000000
   20        6.479156      6.479114   0.000000   0.000000
   21        8.275750      8.275746   0.000000   0.000000
   22        8.583167      8.583187   0.000000   0.000000
   23       10.824534     10.824537   0.000000   0.000000
   24       11.077558     11.077532   0.000000   0.000000
   25       13.216600     13.216206   0.000000   0.000000
   26       13.965418     13.966833   0.000000   0.000000
 
  0.1818182E+00  0.8660137E-17  0.0000000E+00  0.3787879E-02
    1      -42.002399    -42.002244   1.000000   1.000000
    2      -41.998475    -41.998320   1.000000   1.000000
    3      -41.592693    -41.592565   1.000000   1.000000
    4      -41.589414    -41.589286   1.000000   1.000000
    5      -18.199041    -18.199076   1.000000   1.000000
    6      -18.035005    -18.035043   1.000000   1.000000
    7      -13.119190    -13.119224   1.000000   1.000000
    8      -12.487027    -12.487072   1.000000   1.000000
    9       -4.041940     -4.041942   1.000000   1.000000
   10       -2.454053     -2.454078   1.000000   1.000000
   11       -1.781177     -1.781204   1.000000   1.000000
   12       -1.469990     -1.470022   1.000000   1.000000
   13       -1.351114     -1.351148   1.000000   1.000000
   14       -1.069266     -1.069304   1.000000   1.000000
   15        1.260244      1.260206   1.000000   1.000000
   16        1.621970      1.621928   1.000000   1.000000
   17        1.764945      1.764900   1.000000   1.000000
   18        2.235432      2.235379   1.000000   1.000000
   19        4.536382      4.536366   0.000000   0.000000
   20        6.436851      6.436809   0.000000   0.000000
   21        8.795999      8.795989   0.000000   0.000000
   22        9.059229      9.059245   0.000000   0.000000
   23       11.196893     11.196901   0.000000   0.000000
   24       11.756421     11.756413   0.000000   0.000000
   25       12.754568     12.754537   0.000000   0.000000
   26       14.487722     14.537785   0.000000   0.000000
 
  0.2727273E+00 -0.7352994E-17  0.0000000E+00  0.3787879E-02
    1      -41.998786    -41.998631   1.000000   1.000000
    2      -41.996047    -41.995892   1.000000   1.000000
    3      -41.588616    -41.588489   1.000000   1.000000
    4      -41.586479    -41.586351   1.000000   1.000000
    5      -18.153148    -18.153185   1.000000   1.000000
    6      -18.011680    -18.011718   1.000000   1.000000
    7      -12.993554    -12.993589   1.000000   1.000000
    8      -12.446965    -12.447010   1.000000   1.000000
    9       -3.963761     -3.963765   1.000000   1.000000
   10       -2.616447     -2.616467   1.000000   1.000000
   11       -2.188259     -2.188284   1.000000   1.000000
   12       -1.878108     -1.878135   1.000000   1.000000
   13       -1.539436     -1.539469   1.000000   1.000000
   14       -1.184223     -1.184261   1.000000   1.000000
   15        0.751891      0.751860   1.000000   1.000000
   16        1.101423      1.101387   1.000000   1.000000
   17        1.596963      1.596919   1.000000   1.000000
   18        2.205972      2.205919   1.000000   1.000000
   19        4.754460      4.754438   0.000000   0.000000
   20        6.347040      6.346998   0.000000   0.000000
   21        9.365893      9.365890   0.000000   0.000000
   22        9.717328      9.717328   0.000000   0.000000
   23       11.648950     11.648961   0.000000   0.000000
   24       12.410955     12.411327   0.000000   0.000000
   25       12.648307     12.647863   0.000000   0.000000
   26       14.169970     14.170153   0.000000   0.000000
 
  0.3636364E+00  0.3464805E-16  0.0000000E+00  0.3787879E-02
    1      -41.995464    -41.995309   1.000000   1.000000
    2      -41.993828    -41.993673   1.000000   1.000000
    3      -41.584909    -41.584782   1.000000   1.000000
    4      -41.583736    -41.583608   1.000000   1.000000
    5      -18.106479    -18.106517   1.000000   1.000000
    6      -17.993185    -17.993224   1.000000   1.000000
    7      -12.860061    -12.860099   1.000000   1.000000
    8      -12.424280    -12.424324   1.000000   1.000000
    9       -3.876051     -3.876058   1.000000   1.000000
   10       -2.942624     -2.942637   1.000000   1.000000
   11       -2.375773     -2.375798   1.000000   1.000000
   12       -2.214223     -2.214247   1.000000   1.000000
   13       -1.698603     -1.698635   1.000000   1.000000
   14       -1.292044     -1.292081   1.000000   1.000000
   15        0.363001      0.362975   1.000000   1.000000
   16        0.631205      0.631174   1.000000   1.000000
   17        1.458055      1.458013   1.000000   1.000000
   18        2.168184      2.168131   1.000000   1.000000
   19        4.965805      4.965778   0.000000   0.000000
   20        6.222412      6.222372   0.000000   0.000000
   21        9.719245      9.719343   0.000000   0.000000
   22       10.391069     10.391074   0.000000   0.000000
   23       12.031148     12.030976   0.000000   0.000000
   24       12.273117     12.273143   0.000000   0.000000
   25       13.502665     13.509892   0.000000   0.000000
   26       13.873443     13.875744   0.000000   0.000000
 
  0.4545455E+00  0.1091451E-15  0.0000000E+00  0.3787879E-02
    1      -41.993501    -41.993345   1.000000   1.000000
    2      -41.992562    -41.992407   1.000000   1.000000
    3      -41.582831    -41.582703   1.000000   1.000000
    4      -41.582046    -41.581918   1.000000   1.000000
    5      -18.075462    -18.075501   1.000000   1.000000
    6      -17.984922    -17.984961   1.000000   1.000000
    7      -12.765750    -12.765789   1.000000   1.000000
    8      -12.424191    -12.424235   1.000000   1.000000
    9       -3.806218     -3.806227   1.000000   1.000000
   10       -3.189323     -3.189332   1.000000   1.000000
   11       -2.476812     -2.476835   1.000000   1.000000
   12       -2.365275     -2.365299   1.000000   1.000000
   13       -1.788536     -1.788567   1.000000   1.000000
   14       -1.356047     -1.356083   1.000000   1.000000
   15        0.178017      0.177996   1.000000   1.000000
   16        0.334772      0.334741   1.000000   1.000000
   17        1.380231      1.380191   1.000000   1.000000
   18        2.143005      2.142953   1.000000   1.000000
   19        5.113084      5.113055   0.000000   0.000000
   20        6.117254      6.117215   0.000000   0.000000
   21        9.842154      9.842724   0.000000   0.000000
   22       10.808113     10.808110   0.000000   0.000000
   23       12.243875     12.243847   0.000000   0.000000
   24       12.278217     12.277555   0.000000   0.000000
   25       13.762425     13.761962   0.000000   0.000000
   26       13.983278     13.982061   0.000000   0.000000
 
 -0.5142220E-17  0.8333333E-01  0.0000000E+00  0.3787879E-02
    1      -42.005243    -42.005088   1.000000   1.000000
    2      -42.000339    -42.000184   1.000000   1.000000
    3      -41.595828    -41.595701   1.000000   1.000000
    4      -41.591666    -41.591539   1.000000   1.000000
    5      -18.232553    -18.232587   1.000000   1.000000
    6      -18.054011    -18.054048   1.000000   1.000000
    7      -13.209139    -13.209171   1.000000   1.000000
    8      -12.524526    -12.524570   1.000000   1.000000
    9       -4.096234     -4.096235   1.000000   1.000000
   10       -2.397265     -2.397290   1.000000   1.000000
   11       -1.286606     -1.286640   1.000000   1.000000
   12       -1.241756     -1.241792   1.000000   1.000000
   13       -1.072778     -1.072816   1.000000   1.000000
   14       -1.037300     -1.037339   1.000000   1.000000
   15        1.801577      1.801531   1.000000   1.000000
   16        1.874858      1.874811   1.000000   1.000000
   17        2.094629      2.094580   1.000000   1.000000
   18        2.199658      2.199604   1.000000   1.000000
   19        4.343653      4.343644   0.000000   0.000000
   20        6.481091      6.481049   0.000000   0.000000
   21        8.236395      8.236392   0.000000   0.000000
   22        8.550684      8.550703   0.000000   0.000000
   23       10.802959     10.802962   0.000000   0.000000
   24       11.041421     11.041400   0.000000   0.000000
   25       13.440349     13.443148   0.000000   0.000000
   26       13.687038     13.687585   0.000000   0.000000
 
  0.9090909E-01  0.8333333E-01  0.0000000E+00  0.3787879E-02
    1      -42.003383    -42.003228   1.000000   1.000000
    2      -41.999088    -41.998933   1.000000   1.000000
    3      -41.593746    -41.593618   1.000000   1.000000
    4      -41.590177    -41.590049   1.000000   1.000000
    5      -18.210513    -18.210548   1.000000   1.000000
    6      -18.040815    -18.040852   1.000000   1.000000
    7      -13.151526    -13.151559   1.000000   1.000000
    8      -12.498898    -12.498942   1.000000   1.000000
    9       -4.061202     -4.061204   1.000000   1.000000
   10       -2.426558     -2.426584   1.000000   1.000000
   11       -1.583956     -1.583986   1.000000   1.000000
   12       -1.439835     -1.439869   1.000000   1.000000
   13       -1.197335     -1.197370   1.000000   1.000000
   14       -1.101131     -1.101169   1.000000   1.000000
   15        1.472908      1.472866   1.000000   1.000000
   16        1.672782      1.672739   1.000000   1.000000
   17        1.928845      1.928798   1.000000   1.000000
   18        2.181193      2.181140   1.000000   1.000000
   19        4.471550      4.471536   0.000000   0.000000
   20        6.456261      6.456219   0.000000   0.000000
   21        8.591699      8.591693   0.000000   0.000000
   22        8.867118      8.867132   0.000000   0.000000
   23       11.055683     11.055680   0.000000   0.000000
   24       11.496647     11.496624   0.000000   0.000000
   25       12.968767     12.969506   0.000000   0.000000
   26       14.164917     14.171353   0.000000   0.000000
 
  0.1818182E+00  0.8333333E-01  0.0000000E+00  0.3787879E-02
    1      -42.000176    -42.000021   1.000000   1.000000
    2      -41.996971    -41.996816   1.000000   1.000000
    3      -41.590185    -41.590058   1.000000   1.000000
    4      -41.587573    -41.587445   1.000000   1.000000
    5      -18.170860    -18.170896   1.000000   1.000000
    6      -18.019575    -18.019613   1.000000   1.000000
    7      -13.045264    -13.045299   1.000000   1.000000
    8      -12.460295    -12.460339   1.000000   1.000000
    9       -3.994078     -3.994082   1.000000   1.000000
   10       -2.517846     -2.517869   1.000000   1.000000
   11       -2.011322     -2.011348   1.000000   1.000000
   12       -1.785303     -1.785332   1.000000   1.000000
   13       -1.399888     -1.399922   1.000000   1.000000
   14       -1.198015     -1.198052   1.000000   1.000000
   15        0.991156      0.991121   1.000000   1.000000
   16        1.290923      1.290887   1.000000   1.000000
   17        1.698399      1.698354   1.000000   1.000000
   18        2.143411      2.143359   1.000000   1.000000
   19        4.673615      4.673594   0.000000   0.000000
   20        6.389702      6.389660   0.000000   0.000000
   21        9.185320      9.185309   0.000000   0.000000
   22        9.424362      9.424372   0.000000   0.000000
   23       11.474966     11.474974   0.000000   0.000000
   24       12.278765     12.278651   0.000000   0.000000
   25       12.546120     12.546058   0.000000   0.000000
   26       14.341789     14.409658   0.000000   0.000000
 
  0.2727273E+00  0.8333333E-01  0.0000000E+00  0.3787879E-02
    1      -41.996723    -41.996568   1.000000   1.000000
    2      -41.994611    -41.994456   1.000000   1.000000
    3      -41.586256    -41.586129   1.000000   1.000000
    4      -41.584728    -41.584600   1.000000   1.000000
    5      -18.123636    -18.123673   1.000000   1.000000
    6      -17.998804    -17.998843   1.000000   1.000000
    7      -12.912815    -12.912852   1.000000   1.000000
    8      -12.430029    -12.430074   1.000000   1.000000
    9       -3.904764     -3.904770   1.000000   1.000000
   10       -2.768971     -2.768988   1.000000   1.000000
   11       -2.308586     -2.308611   1.000000   1.000000
   12       -2.139407     -2.139433   1.000000   1.000000
   13       -1.606626     -1.606658   1.000000   1.000000
   14       -1.303649     -1.303685   1.000000   1.000000
   15        0.548535      0.548506   1.000000   1.000000
   16        0.847467      0.847435   1.000000   1.000000
   17        1.489853      1.489811   1.000000   1.000000
   18        2.094057      2.094006   1.000000   1.000000
   19        4.897101      4.897076   0.000000   0.000000
   20        6.277216      6.277175   0.000000   0.000000
   21        9.719718      9.719734   0.000000   0.000000
   22       10.131389     10.131390   0.000000   0.000000
   23       11.912205     11.912177   0.000000   0.000000
   24       12.291876     12.292049   0.000000   0.000000
   25       13.166619     13.165400   0.000000   0.000000
   26       13.904824     13.904655   0.000000   0.000000
 
  0.3636364E+00  0.8333333E-01  0.0000000E+00  0.3787879E-02
    1      -41.994013    -41.993858   1.000000   1.000000
    2      -41.992854    -41.992699   1.000000   1.000000
    3      -41.583283    -41.583155   1.000000   1.000000
    4      -41.582493    -41.582365   1.000000   1.000000
    5      -18.082619    -18.082657   1.000000   1.000000
    6      -17.986552    -17.986591   1.000000   1.000000
    7      -12.790949    -12.790988   1.000000   1.000000
    8      -12.423650    -12.423694   1.000000   1.000000
    9       -3.811973     -3.811981   1.000000   1.000000
   10       -3.082657     -3.082669   1.000000   1.000000
   11       -2.442372     -2.442396   1.000000   1.000000
   12       -2.380263     -2.380288   1.000000   1.000000
   13       -1.751399     -1.751429   1.000000   1.000000
   14       -1.386321     -1.386355   1.000000   1.000000
   15        0.268186      0.268161   1.000000   1.000000
   16        0.481806      0.481776   1.000000   1.000000
   17        1.349719      1.349679   1.000000   1.000000
   18        2.048392      2.048341   1.000000   1.000000
   19        5.095386      5.095357   0.000000   0.000000
   20        6.147032      6.146993   0.000000   0.000000
   21        9.991161      9.991257   0.000000   0.000000
   22       10.775690     10.775695   0.000000   0.000000
   23       12.233701     12.233451   0.000000   0.000000
   24       12.237924     12.237827   0.000000   0.000000
   25       13.694882     13.699972   0.000000   0.000000
   26       13.820215     13.831007   0.000000   0.000000
 
  0.4545455E+00  0.8333333E-01  0.0000000E+00  0.3787879E-02
    1      -41.992967    -41.992812   1.000000   1.000000
    2      -41.992165    -41.992010   1.000000   1.000000
    3      -41.582214    -41.582086   1.000000   1.000000
    4      -41.581540    -41.581412   1.000000   1.000000
    5      -18.064755    -18.064795   1.000000   1.000000
    6      -17.983704    -17.983744   1.000000   1.000000
    7      -12.734576    -12.734616   1.000000   1.000000
    8      -12.430045    -12.430089   1.000000   1.000000
    9       -3.760780     -3.760790   1.000000   1.000000
   10       -3.225562     -3.225570   1.000000   1.000000
   11       -2.513421     -2.513445   1.000000   1.000000
   12       -2.442639     -2.442664   1.000000   1.000000
   13       -1.805464     -1.805494   1.000000   1.000000
   14       -1.418614     -1.418649   1.000000   1.000000
   15        0.186477      0.186457   1.000000   1.000000
   16        0.322634      0.322602   1.000000   1.000000
   17        1.296102      1.296063   1.000000   1.000000
   18        2.027699      2.027649   1.000000   1.000000
   19        5.188646      5.188615   0.000000   0.000000
   20        6.077407      6.077369   0.000000   0.000000
   21       10.059086     10.059429   0.000000   0.000000
   22       11.048207     11.048211   0.000000   0.000000
   23       12.265653     12.265017   0.000000   0.000000
   24       12.365031     12.365010   0.000000   0.000000
   25       13.642901     13.642759   0.000000   0.000000
   26       13.981975     13.980688   0.000000   0.000000
 
 -0.4545455E+00  0.8333333E-01  0.0000000E+00  0.3787879E-02
    1      -41.993935    -41.993780   1.000000   1.000000
    2      -41.992793    -41.992638   1.000000   1.000000
    3      -41.583212    -41.583084   1.000000   1.000000
    4      -41.582413    -41.582285   1.000000   1.000000
    5      -18.081110    -18.081149   1.000000   1.000000
    6      -17.987004    -17.987044   1.000000   1.000000
    7      -12.784821    -12.784860   1.000000   1.000000
    8      -12.425548    -12.425592   1.000000   1.000000
    9       -3.806385     -3.806393   1.000000   1.000000
   10       -3.097014     -3.097025   1.000000   1.000000
   11       -2.453880     -2.453905   1.000000   1.000000
   12       -2.384892     -2.384917   1.000000   1.000000
   13       -1.760657     -1.760687   1.000000   1.000000
   14       -1.390443     -1.390478   1.000000   1.000000
   15        0.262416      0.262392   1.000000   1.000000
   16        0.466516      0.466486   1.000000   1.000000
   17        1.336533      1.336494   1.000000   1.000000
   18        2.041885      2.041834   1.000000   1.000000
   19        5.107941      5.107912   0.000000   0.000000
   20        6.137926      6.137887   0.000000   0.000000
   21       10.006230     10.006163   0.000000   0.000000
   22       10.822917     10.822913   0.000000   0.000000
   23       12.257007     12.256960   0.000000   0.000000
   24       12.263226     12.263112   0.000000   0.000000
   25       13.684841     13.687723   0.000000   0.000000
   26       13.820806     13.818757   0.000000   0.000000
 
 -0.3636364E+00  0.8333333E-01  0.0000000E+00  0.3787879E-02
    1      -41.996558    -41.996403   1.000000   1.000000
    2      -41.994558    -41.994403   1.000000   1.000000
    3      -41.586113    -41.585986   1.000000   1.000000
    4      -41.584647    -41.584519   1.000000   1.000000
    5      -18.121587    -18.121624   1.000000   1.000000
    6      -17.999183    -17.999222   1.000000   1.000000
    7      -12.904698    -12.904735   1.000000   1.000000
    8      -12.431117    -12.431161   1.000000   1.000000
    9       -3.898399     -3.898404   1.000000   1.000000
   10       -2.790298     -2.790315   1.000000   1.000000
   11       -2.323442     -2.323467   1.000000   1.000000
   12       -2.155600     -2.155625   1.000000   1.000000
   13       -1.620717     -1.620749   1.000000   1.000000
   14       -1.310254     -1.310290   1.000000   1.000000
   15        0.530797      0.530768   1.000000   1.000000
   16        0.825704      0.825672   1.000000   1.000000
   17        1.467257      1.467216   1.000000   1.000000
   18        2.084883      2.084832   1.000000   1.000000
   19        4.914563      4.914537   0.000000   0.000000
   20        6.266785      6.266744   0.000000   0.000000
   21        9.761730      9.761713   0.000000   0.000000
   22       10.209292     10.209288   0.000000   0.000000
   23       11.944653     11.944577   0.000000   0.000000
   24       12.309464     12.309677   0.000000   0.000000
   25       13.209997     13.210511   0.000000   0.000000
   26       13.871153     13.880181   0.000000   0.000000
 
 -0.2727273E+00  0.8333333E-01  0.0000000E+00  0.3787879E-02
    1      -42.000004    -41.999849   1.000000   1.000000
    2      -41.996862    -41.996707   1.000000   1.000000
    3      -41.589995    -41.589867   1.000000   1.000000
    4      -41.587460    -41.587332   1.000000   1.000000
    5      -18.169053    -18.169089   1.000000   1.000000
    6      -18.019590    -18.019628   1.000000   1.000000
    7      -13.037943    -13.037978   1.000000   1.000000
    8      -12.459928    -12.459972   1.000000   1.000000
    9       -3.989095     -3.989099   1.000000   1.000000
   10       -2.532582     -2.532605   1.000000   1.000000
   11       -2.035131     -2.035157   1.000000   1.000000
   12       -1.814522     -1.814550   1.000000   1.000000
   13       -1.407361     -1.407394   1.000000   1.000000
   14       -1.203873     -1.203909   1.000000   1.000000
   15        0.961909      0.961875   1.000000   1.000000
   16        1.266240      1.266204   1.000000   1.000000
   17        1.675622      1.675578   1.000000   1.000000
   18        2.137751      2.137700   1.000000   1.000000
   19        4.691281      4.691260   0.000000   0.000000
   20        6.382083      6.382041   0.000000   0.000000
   21        9.251772      9.251746   0.000000   0.000000
   22        9.494304      9.494310   0.000000   0.000000
   23       11.511813     11.511837   0.000000   0.000000
   24       12.340247     12.340182   0.000000   0.000000
   25       12.527356     12.528124   0.000000   0.000000
   26       14.242259     14.242830   0.000000   0.000000
 
 -0.1818182E+00  0.8333333E-01  0.0000000E+00  0.3787879E-02
    1      -42.003271    -42.003117   1.000000   1.000000
    2      -41.999032    -41.998877   1.000000   1.000000
    3      -41.593641    -41.593514   1.000000   1.000000
    4      -41.590112    -41.589984   1.000000   1.000000
    5      -18.209275    -18.209309   1.000000   1.000000
    6      -18.040765    -18.040802   1.000000   1.000000
    7      -13.146752    -13.146785   1.000000   1.000000
    8      -12.498113    -12.498157   1.000000   1.000000
    9       -4.058278     -4.058280   1.000000   1.000000
   10       -2.433524     -2.433550   1.000000   1.000000
   11       -1.615756     -1.615786   1.000000   1.000000
   12       -1.471876     -1.471908   1.000000   1.000000
   13       -1.191312     -1.191347   1.000000   1.000000
   14       -1.100274     -1.100312   1.000000   1.000000
   15        1.435399      1.435357   1.000000   1.000000
   16        1.651808      1.651766   1.000000   1.000000
   17        1.915655      1.915608   1.000000   1.000000
   18        2.185283      2.185230   1.000000   1.000000
   19        4.485499      4.485484   0.000000   0.000000
   20        6.452473      6.452430   0.000000   0.000000
   21        8.647023      8.647017   0.000000   0.000000
   22        8.914190      8.914204   0.000000   0.000000
   23       11.085097     11.085103   0.000000   0.000000
   24       11.545708     11.545682   0.000000   0.000000
   25       12.896203     12.895848   0.000000   0.000000
   26       14.335053     14.253330   0.000000   0.000000
 
 -0.9090909E-01  0.8333333E-01  0.0000000E+00  0.3787879E-02
    1      -42.005228    -42.005073   1.000000   1.000000
    2      -42.000295    -42.000140   1.000000   1.000000
    3      -41.595785    -41.595657   1.000000   1.000000
    4      -41.591666    -41.591538   1.000000   1.000000
    5      -18.232146    -18.232180   1.000000   1.000000
    6      -18.053970    -18.054007   1.000000   1.000000
    7      -13.207497    -13.207530   1.000000   1.000000
    8      -12.524228    -12.524272   1.000000   1.000000
    9       -4.095313     -4.095314   1.000000   1.000000
   10       -2.399341     -2.399367   1.000000   1.000000
   11       -1.326855     -1.326889   1.000000   1.000000
   12       -1.221185     -1.221221   1.000000   1.000000
   13       -1.101263     -1.101300   1.000000   1.000000
   14       -1.011450     -1.011489   1.000000   1.000000
   15        1.763655      1.763609   1.000000   1.000000
   16        1.895141      1.895094   1.000000   1.000000
   17        2.066265      2.066215   1.000000   1.000000
   18        2.219109      2.219056   1.000000   1.000000
   19        4.349175      4.349166   0.000000   0.000000
   20        6.480055      6.480012   0.000000   0.000000
   21        8.256870      8.256866   0.000000   0.000000
   22        8.567772      8.567795   0.000000   0.000000
   23       10.814543     10.814543   0.000000   0.000000
   24       11.059716     11.059701   0.000000   0.000000
   25       13.295976     13.294673   0.000000   0.000000
   26       13.862689     13.864350   0.000000   0.000000
 
 -0.1484458E-16  0.1666667E+00  0.0000000E+00  0.3787879E-02
    1      -42.002648    -42.002494   1.000000   1.000000
    2      -41.998577    -41.998422   1.000000   1.000000
    3      -41.592928    -41.592800   1.000000   1.000000
    4      -41.589507    -41.589379   1.000000   1.000000
    5      -18.201386    -18.201421   1.000000   1.000000
    6      -18.034687    -18.034725   1.000000   1.000000
    7      -13.130346    -13.130379   1.000000   1.000000
    8      -12.488311    -12.488356   1.000000   1.000000
    9       -4.048077     -4.048079   1.000000   1.000000
   10       -2.433039     -2.433064   1.000000   1.000000
   11       -1.666161     -1.666191   1.000000   1.000000
   12       -1.404712     -1.404747   1.000000   1.000000
   13       -1.360140     -1.360173   1.000000   1.000000
   14       -1.121411     -1.121449   1.000000   1.000000
   15        1.382011      1.381971   1.000000   1.000000
   16        1.723402      1.723357   1.000000   1.000000
   17        1.733122      1.733079   1.000000   1.000000
   18        2.193726      2.193672   1.000000   1.000000
   19        4.506996      4.506981   0.000000   0.000000
   20        6.446942      6.446899   0.000000   0.000000
   21        8.663186      8.663178   0.000000   0.000000
   22        8.949191      8.949205   0.000000   0.000000
   23       11.122573     11.122567   0.000000   0.000000
   24       11.636614     11.636599   0.000000   0.000000
   25       12.958403     12.958450   0.000000   0.000000
   26       14.150245     14.151940   0.000000   0.000000
 
  0.9090909E-01  0.1666667E+00  0.0000000E+00  0.3787879E-02
    1      -42.000341    -42.000187   1.000000   1.000000
    2      -41.997003    -41.996848   1.000000   1.000000
    3      -41.590294    -41.590166   1.000000   1.000000
    4      -41.587635    -41.587507   1.000000   1.000000
    5      -18.172069    -18.172104   1.000000   1.000000
    6      -18.018955    -18.018994   1.000000   1.000000
    7      -13.052076    -13.052111   1.000000   1.000000
    8      -12.460314    -12.460359   1.000000   1.000000
    9       -3.997729     -3.997732   1.000000   1.000000
   10       -2.494583     -2.494607   1.000000   1.000000
   11       -1.939341     -1.939368   1.000000   1.000000
   12       -1.776338     -1.776367   1.000000   1.000000
   13       -1.373503     -1.373536   1.000000   1.000000
   14       -1.254148     -1.254185   1.000000   1.000000
   15        1.070128      1.070091   1.000000   1.000000
   16        1.327889      1.327853   1.000000   1.000000
   17        1.698535      1.698491   1.000000   1.000000
   18        2.108345      2.108293   1.000000   1.000000
   19        4.657422      4.657403   0.000000   0.000000
   20        6.397644      6.397602   0.000000   0.000000
   21        9.094567      9.094554   0.000000   0.000000
   22        9.358100      9.358111   0.000000   0.000000
   23       11.425313     11.425320   0.000000   0.000000
   24       12.201748     12.201831   0.000000   0.000000
   25       12.648642     12.648762   0.000000   0.000000