 running on   12 total cores
 distrk:  each k-point on   12 cores,    1 groups
 distr:  one band on    6 cores,    2 groups
 using from now: INCAR     
 vasp.6.1.2 22Jul20 (build Mar 20 2021 11:25:07) complex                        
  
 POSCAR found type information on POSCAR LiO 
 POSCAR found :  2 types and       8 ions
 scaLAPACK will be used
 -----------------------------------------------------------------------------
|                                                                             |
|               ----> ADVICE to this user running VASP <----                  |
|                                                                             |
|     You have a (more or less) 'small supercell' and for smaller cells       |
|     it is recommended to use the reciprocal-space projection scheme!        |
|     The real-space optimization is not efficient for small cells and it     |
|     is also less accurate ...                                               |
|     Therefore, set LREAL=.FALSE. in the INCAR file.                         |
|                                                                             |
 -----------------------------------------------------------------------------

 LDA part: xc-table for Pade appr. of Perdew
 generate k-points for:   11   12    4
 POSCAR, INCAR and KPOINTS ok, starting setup
 FFT: planning ...
 WAVECAR not read
 entering main loop
       N       E                     dE             d eps       ncg     rms          rms(c)
DAV:   1     0.260641078627E+03    0.26064E+03   -0.17553E+04 20912   0.147E+03
DAV:   2    -0.142456454040E+02   -0.27489E+03   -0.26565E+03 25080   0.367E+02
DAV:   3    -0.373234926566E+02   -0.23078E+02   -0.22915E+02 33450   0.908E+01
DAV:   4    -0.392477636963E+02   -0.19243E+01   -0.19183E+01 31470   0.235E+01
DAV:   5    -0.393074790087E+02   -0.59715E-01   -0.59710E-01 29260   0.350E+00    0.178E+01
RMM:   6    -0.381905264370E+02    0.11170E+01   -0.51382E+00 23052   0.120E+01    0.785E+00
RMM:   7    -0.387956386494E+02   -0.60511E+00   -0.83244E-01 26430   0.570E+00    0.389E+00
RMM:   8    -0.388738670893E+02   -0.78228E-01   -0.38530E-01 31261   0.355E+00    0.157E+00
RMM:   9    -0.388856243986E+02   -0.11757E-01   -0.13026E-01 32573   0.234E+00    0.386E-01
RMM:  10    -0.388967603257E+02   -0.11136E-01   -0.70962E-02 36836   0.132E+00    0.195E-01
RMM:  11    -0.389011399999E+02   -0.43797E-02   -0.27141E-02 37826   0.782E-01    0.138E-01
RMM:  12    -0.389028024871E+02   -0.16625E-02   -0.12175E-02 39117   0.473E-01    0.105E-01
WARNING in EDDRMM: call to ZHEGV failed, returncode =   8  4     12
RMM:  13    -0.389032578357E+02   -0.45535E-03   -0.42274E-03 36865   0.339E-01    0.526E-02
RMM:  14    -0.389036269226E+02   -0.36909E-03   -0.24049E-03 37594   0.242E-01    0.139E-02
RMM:  15    -0.389037646821E+02   -0.13776E-03   -0.12234E-03 35628   0.143E-01    0.107E-02
RMM:  16    -0.389038185915E+02   -0.53909E-04   -0.48903E-04 34402   0.936E-02    0.101E-02
RMM:  17    -0.389038354344E+02   -0.16843E-04   -0.19091E-04 33352   0.649E-02    0.385E-03
RMM:  18    -0.389038430447E+02   -0.76103E-05   -0.76368E-05 27474   0.457E-02
   1 F= -.38903843E+02 E0= -.38903843E+02  d E =0.000000E+00  mag=    -0.0000
