       N       E                     dE             d eps       ncg     rms          rms(c)
DAV:   1     0.614323953467E+02    0.61432E+02   -0.64662E+03 13464   0.120E+03
DAV:   2    -0.882934983696E+01   -0.70262E+02   -0.65720E+02 17500   0.256E+02
DAV:   3    -0.181584915460E+02   -0.93291E+01   -0.92685E+01 22464   0.733E+01
DAV:   4    -0.187740383136E+02   -0.61555E+00   -0.61487E+00 19760   0.177E+01
DAV:   5    -0.187823352992E+02   -0.82970E-02   -0.82965E-02 19392   0.230E+00    0.143E+01
RMM:   6    -0.155613096000E+02    0.32210E+01   -0.86137E+00 15629   0.164E+01    0.644E+00
RMM:   7    -0.156103628153E+02   -0.49053E-01   -0.75037E-01 18328   0.908E+00    0.256E+00
RMM:   8    -0.155565146840E+02    0.53848E-01   -0.32537E-01 21917   0.392E+00    0.145E+00
RMM:   9    -0.155603897149E+02   -0.38750E-02   -0.15118E-01 20887   0.312E+00    0.481E-01
RMM:  10    -0.155663397541E+02   -0.59500E-02   -0.63087E-02 23538   0.180E+00    0.277E-01
RMM:  11    -0.155697436463E+02   -0.34039E-02   -0.26156E-02 23863   0.944E-01    0.149E-01
RMM:  12    -0.155709461024E+02   -0.12025E-02   -0.99041E-03 23768   0.672E-01    0.569E-02
RMM:  13    -0.155715876983E+02   -0.64160E-03   -0.49291E-03 23734   0.414E-01    0.481E-02
RMM:  14    -0.155718133702E+02   -0.22567E-03   -0.20386E-03 22870   0.257E-01    0.198E-02
RMM:  15    -0.155719193986E+02   -0.10603E-03   -0.96756E-04 21845   0.168E-01    0.408E-03
RMM:  16    -0.155719714348E+02   -0.52036E-04   -0.42773E-04 20378   0.112E-01    0.571E-03
RMM:  17    -0.155719937692E+02   -0.22334E-04   -0.19959E-04 19154   0.778E-02    0.212E-03
RMM:  18    -0.155720043507E+02   -0.10582E-04   -0.93799E-05 18205   0.586E-02    0.846E-04
RMM:  19    -0.155720096403E+02   -0.52896E-05   -0.42290E-05 16942   0.465E-02
   1 F= -.15572010E+02 E0= -.15572010E+02  d E =0.000000E+00  mag=     0.0000
