 running on   12 total cores
 distrk:  each k-point on   12 cores,    1 groups
 distr:  one band on    6 cores,    2 groups
 using from now: INCAR     
 vasp.6.1.2 22Jul20 (build Mar 20 2021 11:25:07) complex                        
  
 POSCAR found type information on POSCAR LiN 
 POSCAR found :  2 types and       4 ions
 scaLAPACK will be used
 -----------------------------------------------------------------------------
|                                                                             |
|               ----> ADVICE to this user running VASP <----                  |
|                                                                             |
|     You have a (more or less) 'small supercell' and for smaller cells       |
|     it is recommended to use the reciprocal-space projection scheme!        |
|     The real-space optimization is not efficient for small cells and it     |
|     is also less accurate ...                                               |
|     Therefore, set LREAL=.FALSE. in the INCAR file.                         |
|                                                                             |
 -----------------------------------------------------------------------------

 LDA part: xc-table for Pade appr. of Perdew
 generate k-points for:   10   10    8
 POSCAR, INCAR and KPOINTS ok, starting setup
 FFT: planning ...
 WAVECAR not read
 entering main loop
       N       E                     dE             d eps       ncg     rms          rms(c)
DAV:   1     0.603854939815E+02    0.60385E+02   -0.64224E+03 12488   0.119E+03
DAV:   2    -0.868013808530E+01   -0.69066E+02   -0.64632E+02 16124   0.252E+02
DAV:   3    -0.181208437666E+02   -0.94407E+01   -0.93802E+01 21108   0.730E+01
DAV:   4    -0.187332226788E+02   -0.61238E+00   -0.61177E+00 17996   0.176E+01
DAV:   5    -0.187429326348E+02   -0.97100E-02   -0.97078E-02 18232   0.238E+00    0.142E+01
RMM:   6    -0.156053151619E+02    0.31376E+01   -0.86087E+00 14420   0.163E+01    0.648E+00
RMM:   7    -0.156472838874E+02   -0.41969E-01   -0.74459E-01 16817   0.912E+00    0.252E+00
WARNING in EDDRMM: call to ZHEGV failed, returncode =   6  3      3
RMM:   8    -0.155918033455E+02    0.55481E-01   -0.32270E-01 20295   0.390E+00    0.143E+00
RMM:   9    -0.155974836117E+02   -0.56803E-02   -0.14791E-01 19318   0.307E+00    0.485E-01
RMM:  10    -0.156030890275E+02   -0.56054E-02   -0.59932E-02 21768   0.176E+00    0.274E-01
RMM:  11    -0.156062650628E+02   -0.31760E-02   -0.24628E-02 21987   0.926E-01    0.143E-01
RMM:  12    -0.156074471478E+02   -0.11821E-02   -0.94134E-03 21958   0.668E-01    0.545E-02
RMM:  13    -0.156080636259E+02   -0.61648E-03   -0.47340E-03 22080   0.409E-01    0.470E-02
RMM:  14    -0.156082776632E+02   -0.21404E-03   -0.19217E-03 21174   0.252E-01    0.198E-02
RMM:  15    -0.156083792301E+02   -0.10157E-03   -0.92525E-04 20239   0.166E-01    0.426E-03
RMM:  16    -0.156084295245E+02   -0.50294E-04   -0.40956E-04 18788   0.111E-01    0.570E-03
RMM:  17    -0.156084516959E+02   -0.22171E-04   -0.19348E-04 17590   0.771E-02    0.410E-03
RMM:  18    -0.156084608773E+02   -0.91814E-05   -0.91162E-05 16862   0.588E-02
   1 F= -.15608461E+02 E0= -.15608461E+02  d E =0.000000E+00  mag=     0.0000
