       N       E                     dE             d eps       ncg     rms          rms(c)
DAV:   1     0.797791986140E+02    0.79779E+02   -0.81041E+03 14976   0.103E+03
DAV:   2    -0.227964094959E+02   -0.10258E+03   -0.98788E+02 20288   0.238E+02
DAV:   3    -0.280566885522E+02   -0.52603E+01   -0.52389E+01 21640   0.567E+01
DAV:   4    -0.282232928682E+02   -0.16660E+00   -0.16654E+00 20744   0.880E+00
DAV:   5    -0.282250633557E+02   -0.17705E-02   -0.17705E-02 20560   0.881E-01    0.123E+01
RMM:   6    -0.273508344978E+02    0.87423E+00   -0.30175E+00 16564   0.105E+01    0.560E+00
RMM:   7    -0.273116758024E+02    0.39159E-01   -0.37887E-01 18166   0.566E+00    0.309E+00
RMM:   8    -0.272874835611E+02    0.24192E-01   -0.19916E-01 19145   0.324E+00    0.150E+00
RMM:   9    -0.272989310151E+02   -0.11447E-01   -0.37791E-02 21098   0.162E+00    0.595E-01
RMM:  10    -0.273001129449E+02   -0.11819E-02   -0.10014E-02 22617   0.747E-01    0.145E-01
RMM:  11    -0.273005057606E+02   -0.39282E-03   -0.22354E-03 22845   0.385E-01    0.755E-02
RMM:  12    -0.273007931970E+02   -0.28744E-03   -0.10458E-03 24820   0.227E-01    0.455E-02
RMM:  13    -0.273008407608E+02   -0.47564E-04   -0.35396E-04 24344   0.131E-01    0.146E-02
RMM:  14    -0.273008777042E+02   -0.36943E-04   -0.18529E-04 23566   0.917E-02    0.742E-03
RMM:  15    -0.273008875556E+02   -0.98515E-05   -0.82351E-05 20897   0.547E-02
   1 F= -.27300888E+02 E0= -.27300888E+02  d E =0.000000E+00  mag=     0.0000
