 running on   24 total cores
 distrk:  each k-point on   24 cores,    1 groups
 distr:  one band on    6 cores,    4 groups
 using from now: INCAR     
 vasp.6.1.2 22Jul20 (build Mar 31 2021 18:09:49) complex                        
  
 POSCAR found type information on POSCAR LiO 
 POSCAR found :  2 types and       8 ions
 scaLAPACK will be used
 -----------------------------------------------------------------------------
|                                                                             |
|               ----> ADVICE to this user running VASP <----                  |
|                                                                             |
|     You have a (more or less) 'small supercell' and for smaller cells       |
|     it is recommended to use the reciprocal-space projection scheme!        |
|     The real-space optimization is not efficient for small cells and it     |
|     is also less accurate ...                                               |
|     Therefore, set LREAL=.FALSE. in the INCAR file.                         |
|                                                                             |
 -----------------------------------------------------------------------------

 LDA part: xc-table for Pade appr. of Perdew
 generate k-points for:   12   12    4
 POSCAR, INCAR and KPOINTS ok, starting setup
 FFT: planning ...
 WAVECAR not read
 entering main loop
       N       E                     dE             d eps       ncg     rms          rms(c)
DAV:   1     0.253526492376E+03    0.25353E+03   -0.17331E+04 18376   0.137E+03
DAV:   2    -0.146427657841E+02   -0.26817E+03   -0.25788E+03 21984   0.347E+02
DAV:   3    -0.375142956772E+02   -0.22872E+02   -0.22679E+02 29480   0.847E+01
DAV:   4    -0.392544581080E+02   -0.17402E+01   -0.17332E+01 27420   0.214E+01
DAV:   5    -0.392998808066E+02   -0.45423E-01   -0.45420E-01 25856   0.310E+00    0.178E+01
RMM:   6    -0.381859474079E+02    0.11139E+01   -0.44963E+00 20464   0.109E+01    0.783E+00
RMM:   7    -0.387930157926E+02   -0.60707E+00   -0.68061E-01 23109   0.506E+00    0.389E+00
RMM:   8    -0.388708274063E+02   -0.77812E-01   -0.30778E-01 27054   0.315E+00    0.156E+00
RMM:   9    -0.388814954444E+02   -0.10668E-01   -0.10560E-01 28768   0.204E+00    0.385E-01
RMM:  10    -0.388910557942E+02   -0.95603E-02   -0.54101E-02 32313   0.115E+00    0.187E-01
RMM:  11    -0.388948694629E+02   -0.38137E-02   -0.20779E-02 33048   0.667E-01    0.126E-01
RMM:  12    -0.388961827037E+02   -0.13132E-02   -0.87689E-03 34294   0.400E-01    0.916E-02
RMM:  13    -0.388965963727E+02   -0.41367E-03   -0.32394E-03 32826   0.273E-01    0.378E-02
RMM:  14    -0.388968594431E+02   -0.26307E-03   -0.16496E-03 33308   0.191E-01    0.923E-03
RMM:  15    -0.388969508423E+02   -0.91399E-04   -0.76055E-04 31611   0.112E-01    0.932E-03
RMM:  16    -0.388969854581E+02   -0.34616E-04   -0.31568E-04 30394   0.738E-02    0.610E-03
RMM:  17    -0.388969986611E+02   -0.13203E-04   -0.12451E-04 28154   0.511E-02    0.341E-03
RMM:  18    -0.388970031108E+02   -0.44496E-05   -0.46045E-05 24154   0.374E-02
   1 F= -.38897003E+02 E0= -.38897003E+02  d E =0.000000E+00  mag=    -0.0000
