   26   26    1    2
  0.1135136E+02  0.5207937E-09  0.7215480E-09  0.8662006E-09  0.5000000E-15
  1.000000000000000E-004
  CAR 
 unknown system                          
    128     71     86
 
  0.0000000E+00  0.0000000E+00  0.0000000E+00  0.7142857E-02
    1      -41.898872    -41.898938   1.000000   1.000000
    2      -41.898238    -41.898304   1.000000   1.000000
    3      -41.783953    -41.784023   1.000000   1.000000
    4      -41.783369    -41.783438   1.000000   1.000000
    5      -41.724394    -41.724474   1.000000   1.000000
    6      -41.710220    -41.710300   1.000000   1.000000
    7      -41.693942    -41.694009   1.000000   1.000000
    8      -41.693857    -41.693923   1.000000   1.000000
    9      -20.056135    -20.056127   1.000000   1.000000
   10      -19.995997    -19.995991   1.000000   1.000000
   11      -18.865927    -18.865922   1.000000   1.000000
   12      -18.836283    -18.836278   1.000000   1.000000
   13      -17.539485    -17.539492   1.000000   1.000000
   14      -17.477925    -17.477933   1.000000   1.000000
   15      -16.952526    -16.952540   1.000000   1.000000
   16      -16.920128    -16.920143   1.000000   1.000000
   17      -16.784980    -16.784994   1.000000   1.000000
   18      -16.774045    -16.774059   1.000000   1.000000
   19      -16.679087    -16.679102   1.000000   1.000000
   20      -16.666683    -16.666698   1.000000   1.000000
   21      -16.624992    -16.625010   1.000000   1.000000
   22      -16.623678    -16.623696   1.000000   1.000000
   23       -8.516545     -8.516529   1.000000   1.000000
   24       -8.497002     -8.496985   1.000000   1.000000
   25       -6.032617     -6.032564   1.000000   1.000000
   26       -5.623557     -5.623518   1.000000   1.000000
   27       -5.041185     -5.041147   1.000000   1.000000
   28       -4.913729     -4.913696   1.000000   1.000000
   29       -4.573887     -4.573855   1.000000   1.000000
   30       -4.375257     -4.375226   1.000000   1.000000
   31       -4.239939     -4.239914   1.000000   1.000000
   32       -4.234003     -4.233980   1.000000   1.000000
   33       -3.836936     -3.836907   1.000000   1.000000
   34       -3.785650     -3.785616   1.000000   1.000000
   35       -3.711255     -3.711227   1.000000   1.000000
   36       -3.545947     -3.545920   1.000000   1.000000
   37       -3.161759     -3.161731   1.000000   1.000000
   38       -2.871912     -2.871889   1.000000   1.000000
   39       -2.426196     -2.426186   1.000000   1.000000
   40       -2.153923     -2.153922   1.000000   1.000000
   41       -2.144052     -2.144050   1.000000   1.000000
   42       -1.878189     -1.878178   1.000000   1.000000
   43       -1.855036     -1.855017   1.000000   1.000000
   44       -1.671947     -1.671941   1.000000   1.000000
   45       -1.535842     -1.535842   1.000000   1.000000
   46       -1.480130     -1.480130   1.000000   1.000000
   47       -1.432556     -1.432553   1.000000   1.000000
   48       -1.221650     -1.221649   1.000000   1.000000
   49       -1.080846     -1.080848   1.000000   1.000000
   50       -1.069315     -1.069312   1.000000   1.000000
   51       -1.026358     -1.026361   1.000000   1.000000
   52       -0.754752     -0.754757   1.000000   1.000000
   53       -0.623361     -0.623366   1.000000   1.000000
   54       -0.398356     -0.398359   1.000000   1.000000
   55       -0.284819     -0.284832   1.000000   1.000000
   56       -0.278043     -0.278057   1.000000   1.000000
   57       -0.116604     -0.116616   1.000000   1.000000
   58       -0.065166     -0.065152   1.000000   1.000000
   59       -0.045045     -0.045045   1.000000   1.000000
   60        0.083571      0.083570   1.000000   1.000000
   61        0.142528      0.142523   1.000000   1.000000
   62        0.225717      0.225701   1.000000   1.000000
   63        0.429127      0.429111   1.000000   1.000000
   64        0.440045      0.440034   1.000000   1.000000
   65        6.174179      6.174226   0.000001   0.000001
   66        8.468277      8.468297   0.000000   0.000000
   67        8.563203      8.563214   0.000000   0.000000
   68        8.760470      8.760517   0.000000   0.000000
   69        8.940453      8.940481   0.000000   0.000000
   70        9.086774      9.086826   0.000000   0.000000
   71        9.263783      9.263837   0.000000   0.000000
   72        9.499320      9.499354   0.000000   0.000000
   73        9.782344      9.782379   0.000000   0.000000
   74        9.785534      9.785578   0.000000   0.000000
   75       10.044471     10.044524   0.000000   0.000000
   76       10.385445     10.385507   0.000000   0.000000
   77       10.515097     10.515121   0.000000   0.000000
   78       10.537586     10.537634   0.000000   0.000000
   79       10.897428     10.897499   0.000000   0.000000
   80       10.918687     10.918720   0.000000   0.000000
   81       11.061189     11.061227   0.000000   0.000000
   82       11.168535     11.168576   0.000000   0.000000
   83       11.410493     11.410528   0.000000   0.000000
   84       11.499988     11.499918   0.000000   0.000000
   85       11.545260     11.545229   0.000000   0.000000
   86       11.829982     11.850188   0.000000   0.000000
 
  0.1428571E+00  0.9933479E-17  0.2050351E-14  0.1428571E-01
    1      -41.898859    -41.898925   1.000000   1.000000
    2      -41.898235    -41.898301   1.000000   1.000000
    3      -41.783911    -41.783980   1.000000   1.000000
    4      -41.783331    -41.783400   1.000000   1.000000
    5      -41.724336    -41.724416   1.000000   1.000000
    6      -41.710339    -41.710419   1.000000   1.000000
    7      -41.693984    -41.694051   1.000000   1.000000
    8      -41.693817    -41.693883   1.000000   1.000000
    9      -20.050719    -20.050712   1.000000   1.000000
   10      -19.996332    -19.996326   1.000000   1.000000
   11      -18.864288    -18.864284   1.000000   1.000000
   12      -18.837442    -18.837437   1.000000   1.000000
   13      -17.533689    -17.533696   1.000000   1.000000
   14      -17.478584    -17.478592   1.000000   1.000000
   15      -16.950248    -16.950263   1.000000   1.000000
   16      -16.919990    -16.920006   1.000000   1.000000
   17      -16.792229    -16.792243   1.000000   1.000000
   18      -16.780030    -16.780045   1.000000   1.000000
   19      -16.683899    -16.683915   1.000000   1.000000
   20      -16.669816    -16.669832   1.000000   1.000000
   21      -16.628351    -16.628369   1.000000   1.000000
   22      -16.625774    -16.625792   1.000000   1.000000
   23       -8.524509     -8.524492   1.000000   1.000000
   24       -8.500881     -8.500865   1.000000   1.000000
   25       -6.013829     -6.013779   1.000000   1.000000
   26       -5.623612     -5.623574   1.000000   1.000000
   27       -5.031098     -5.031061   1.000000   1.000000
   28       -4.902809     -4.902777   1.000000   1.000000
   29       -4.556361     -4.556328   1.000000   1.000000
   30       -4.367508     -4.367477   1.000000   1.000000
   31       -4.225082     -4.225059   1.000000   1.000000
   32       -4.190734     -4.190710   1.000000   1.000000
   33       -3.804580     -3.804546   1.000000   1.000000
   34       -3.768787     -3.768754   1.000000   1.000000
   35       -3.660697     -3.660669   1.000000   1.000000
   36       -3.524239     -3.524211   1.000000   1.000000
   37       -3.150302     -3.150273   1.000000   1.000000
   38       -2.836940     -2.836917   1.000000   1.000000
   39       -2.395199     -2.395190   1.000000   1.000000
   40       -2.199860     -2.199857   1.000000   1.000000
   41       -2.126301     -2.126299   1.000000   1.000000
   42       -1.946937     -1.946922   1.000000   1.000000
   43       -1.861206     -1.861191   1.000000   1.000000
   44       -1.651757     -1.651751   1.000000   1.000000
   45       -1.576176     -1.576173   1.000000   1.000000
   46       -1.453632     -1.453633   1.000000   1.000000
   47       -1.422438     -1.422435   1.000000   1.000000
   48       -1.243397     -1.243397   1.000000   1.000000
   49       -1.160533     -1.160534   1.000000   1.000000
   50       -1.119269     -1.119269   1.000000   1.000000
   51       -1.093848     -1.093845   1.000000   1.000000
   52       -0.792159     -0.792163   1.000000   1.000000
   53       -0.598983     -0.598989   1.000000   1.000000
   54       -0.417535     -0.417538   1.000000   1.000000
   55       -0.313561     -0.313576   1.000000   1.000000
   56       -0.282649     -0.282662   1.000000   1.000000
   57       -0.147335     -0.147347   1.000000   1.000000
   58       -0.101461     -0.101455   1.000000   1.000000
   59       -0.008476     -0.008477   1.000000   1.000000
   60        0.076270      0.076268   1.000000   1.000000
   61        0.161350      0.161346   1.000000   1.000000
   62        0.231754      0.231738   1.000000   1.000000
   63        0.422591      0.422575   1.000000   1.000000
   64        0.451733      0.451721   1.000000   1.000000
   65        6.371677      6.371722  -0.000000  -0.000000
   66        8.360880      8.360900   0.000000   0.000000
   67        8.586607      8.586621   0.000000   0.000000
   68        8.759993      8.760039   0.000000   0.000000
   69        8.887728      8.887763   0.000000   0.000000
   70        9.084838      9.084883   0.000000   0.000000
   71        9.276152      9.276191   0.000000   0.000000
   72        9.638262      9.638308   0.000000   0.000000
   73        9.687898      9.687931   0.000000   0.000000
   74        9.933705      9.933746   0.000000   0.000000
   75       10.084165     10.084217   0.000000   0.000000
   76       10.261652     10.261701   0.000000   0.000000
   77       10.407195     10.407240   0.000000   0.000000
   78       10.563127     10.563159   0.000000   0.000000
   79       10.645322     10.645360   0.000000   0.000000
   80       10.801937     10.801988   0.000000   0.000000
   81       10.954150     10.954174   0.000000   0.000000
   82       11.010934     11.010982   0.000000   0.000000
   83       11.165291     11.165343   0.000000   0.000000
   84       11.497549     11.495765   0.000000   0.000000
   85       11.654894     11.651860   0.000000   0.000000
   86       11.946104     11.817032   0.000000   0.000000
 
  0.2857143E+00  0.1223799E-16  0.4103836E-14  0.1428571E-01
    1      -41.898829    -41.898895   1.000000   1.000000
    2      -41.898227    -41.898293   1.000000   1.000000
    3      -41.783814    -41.783884   1.000000   1.000000
    4      -41.783252    -41.783321   1.000000   1.000000
    5      -41.724211    -41.724291   1.000000   1.000000
    6      -41.710603    -41.710683   1.000000   1.000000
    7      -41.694045    -41.694111   1.000000   1.000000
    8      -41.693774    -41.693841   1.000000   1.000000
    9      -20.037022    -20.037015   1.000000   1.000000
   10      -19.998535    -19.998529   1.000000   1.000000
   11      -18.860286    -18.860281   1.000000   1.000000
   12      -18.840223    -18.840218   1.000000   1.000000
   13      -17.519013    -17.519021   1.000000   1.000000
   14      -17.481449    -17.481457   1.000000   1.000000
   15      -16.944622    -16.944637   1.000000   1.000000
   16      -16.919775    -16.919791   1.000000   1.000000
   17      -16.808396    -16.808409   1.000000   1.000000
   18      -16.794279    -16.794293   1.000000   1.000000
   19      -16.693291    -16.693306   1.000000   1.000000
   20      -16.679286    -16.679301   1.000000   1.000000
   21      -16.637434    -16.637451   1.000000   1.000000
   22      -16.627989    -16.628007   1.000000   1.000000
   23       -8.540307     -8.540290   1.000000   1.000000
   24       -8.511897     -8.511881   1.000000   1.000000
   25       -5.970524     -5.970478   1.000000   1.000000
   26       -5.625026     -5.624988   1.000000   1.000000
   27       -5.001849     -5.001816   1.000000   1.000000
   28       -4.888137     -4.888106   1.000000   1.000000
   29       -4.517641     -4.517607   1.000000   1.000000
   30       -4.354501     -4.354470   1.000000   1.000000
   31       -4.153775     -4.153752   1.000000   1.000000
   32       -4.110365     -4.110340   1.000000   1.000000
   33       -3.830978     -3.830939   1.000000   1.000000
   34       -3.624675     -3.624645   1.000000   1.000000
   35       -3.550233     -3.550202   1.000000   1.000000
   36       -3.448378     -3.448350   1.000000   1.000000
   37       -3.117269     -3.117238   1.000000   1.000000
   38       -2.765535     -2.765514   1.000000   1.000000
   39       -2.349976     -2.349969   1.000000   1.000000
   40       -2.228451     -2.228443   1.000000   1.000000
   41       -2.138740     -2.138734   1.000000   1.000000
   42       -2.022918     -2.022905   1.000000   1.000000
   43       -1.873257     -1.873245   1.000000   1.000000
   44       -1.697625     -1.697617   1.000000   1.000000
   45       -1.612981     -1.612975   1.000000   1.000000
   46       -1.498293     -1.498289   1.000000   1.000000
   47       -1.486757     -1.486757   1.000000   1.000000
   48       -1.346696     -1.346692   1.000000   1.000000
   49       -1.258516     -1.258512   1.000000   1.000000
   50       -1.215817     -1.215815   1.000000   1.000000
   51       -1.158822     -1.158819   1.000000   1.000000
   52       -0.876505     -0.876509   1.000000   1.000000
   53       -0.560838     -0.560842   1.000000   1.000000
   54       -0.460179     -0.460184   1.000000   1.000000
   55       -0.382137     -0.382151   1.000000   1.000000
   56       -0.309528     -0.309540   1.000000   1.000000
   57       -0.190667     -0.190677   1.000000   1.000000
   58       -0.136950     -0.136952   1.000000   1.000000
   59        0.006017      0.006012   1.000000   1.000000
   60        0.069506      0.069500   1.000000   1.000000
   61        0.205515      0.205506   1.000000   1.000000
   62        0.246932      0.246916   1.000000   1.000000
   63        0.424544      0.424529   1.000000   1.000000
   64        0.464816      0.464803   1.000000   1.000000
   65        6.879395      6.879435   0.000000   0.000000
   66        8.279703      8.279728   0.000000   0.000000
   67        8.550296      8.550320   0.000000   0.000000
   68        8.701901      8.701932   0.000000   0.000000
   69        8.914906      8.914942   0.000000   0.000000
   70        9.088486      9.088519   0.000000   0.000000
   71        9.389835      9.389863   0.000000   0.000000
   72        9.498937      9.498977   0.000000   0.000000
   73        9.673638      9.673690   0.000000   0.000000
   74        9.871345      9.871364   0.000000   0.000000
   75        9.949312      9.949356   0.000000   0.000000
   76       10.141241     10.141285   0.000000   0.000000
   77       10.192017     10.192057   0.000000   0.000000
   78       10.450888     10.450916   0.000000   0.000000
   79       10.500916     10.500972   0.000000   0.000000
   80       10.660657     10.660716   0.000000   0.000000
   81       10.765181     10.765215   0.000000   0.000000
   82       10.827302     10.827345   0.000000   0.000000
   83       11.076656     11.076706   0.000000   0.000000
   84       11.337369     11.337413   0.000000   0.000000
   85       11.644983     11.644995   0.000000   0.000000
   86       11.843641     11.844463   0.000000   0.000000
 
  0.4285714E+00 -0.1114230E-16  0.6182306E-14  0.1428571E-01
    1      -41.898795    -41.898861   1.000000   1.000000
    2      -41.898219    -41.898285   1.000000   1.000000
    3      -41.783730    -41.783800   1.000000   1.000000
    4      -41.783186    -41.783255   1.000000   1.000000
    5      -41.724096    -41.724176   1.000000   1.000000
    6      -41.710811    -41.710891   1.000000   1.000000
    7      -41.694090    -41.694156   1.000000   1.000000
    8      -41.693735    -41.693802   1.000000   1.000000
    9      -20.021755    -20.021749   1.000000   1.000000
   10      -20.004430    -20.004424   1.000000   1.000000
   11      -18.856580    -18.856576   1.000000   1.000000
   12      -18.842944    -18.842940   1.000000   1.000000
   13      -17.502021    -17.502030   1.000000   1.000000
   14      -17.488733    -17.488742   1.000000   1.000000
   15      -16.939517    -16.939531   1.000000   1.000000
   16      -16.919547    -16.919563   1.000000   1.000000
   17      -16.821411    -16.821424   1.000000   1.000000
   18      -16.806361    -16.806375   1.000000   1.000000
   19      -16.697724    -16.697738   1.000000   1.000000
   20      -16.691066    -16.691081   1.000000   1.000000
   21      -16.643657    -16.643674   1.000000   1.000000
   22      -16.629637    -16.629655   1.000000   1.000000
   23       -8.551712     -8.551695   1.000000   1.000000
   24       -8.522125     -8.522109   1.000000   1.000000
   25       -5.933538     -5.933497   1.000000   1.000000
   26       -5.629358     -5.629320   1.000000   1.000000
   27       -4.970715     -4.970685   1.000000   1.000000
   28       -4.886367     -4.886337   1.000000   1.000000
   29       -4.487132     -4.487096   1.000000   1.000000
   30       -4.347695     -4.347663   1.000000   1.000000
   31       -4.063925     -4.063903   1.000000   1.000000
   32       -4.044857     -4.044832   1.000000   1.000000
   33       -3.866822     -3.866780   1.000000   1.000000
   34       -3.534414     -3.534382   1.000000   1.000000
   35       -3.443882     -3.443849   1.000000   1.000000
   36       -3.335872     -3.335846   1.000000   1.000000
   37       -3.079417     -3.079386   1.000000   1.000000
   38       -2.720197     -2.720176   1.000000   1.000000
   39       -2.360497     -2.360489   1.000000   1.000000
   40       -2.178483     -2.178477   1.000000   1.000000
   41       -2.126935     -2.126921   1.000000   1.000000
   42       -2.084771     -2.084759   1.000000   1.000000
   43       -1.890377     -1.890370   1.000000   1.000000
   44       -1.770382     -1.770372   1.000000   1.000000
   45       -1.708480     -1.708472   1.000000   1.000000
   46       -1.658758     -1.658751   1.000000   1.000000
   47       -1.550746     -1.550743   1.000000   1.000000
   48       -1.397995     -1.397990   1.000000   1.000000
   49       -1.290946     -1.290935   1.000000   1.000000
   50       -1.269996     -1.269988   1.000000   1.000000
   51       -1.125988     -1.125992   1.000000   1.000000
   52       -0.973373     -0.973376   1.000000   1.000000
   53       -0.553730     -0.553733   1.000000   1.000000
   54       -0.492436     -0.492446   1.000000   1.000000
   55       -0.428701     -0.428712   1.000000   1.000000
   56       -0.340056     -0.340068   1.000000   1.000000
   57       -0.199684     -0.199693   1.000000   1.000000
   58       -0.173249     -0.173255   1.000000   1.000000
   59        0.003591      0.003586   1.000000   1.000000
   60        0.081694      0.081684   1.000000   1.000000
   61        0.233911      0.233897   1.000000   1.000000
   62        0.250709      0.250691   1.000000   1.000000
   63        0.444971      0.444956   1.000000   1.000000
   64        0.465100      0.465086   1.000000   1.000000
   65        7.460185      7.460219   0.000000   0.000000
   66        8.190178      8.190219   0.000000   0.000000
   67        8.576209      8.576227   0.000000   0.000000
   68        8.779294      8.779316   0.000000   0.000000
   69        8.888648      8.888677   0.000000   0.000000
   70        9.097492      9.097515   0.000000   0.000000
   71        9.216671      9.216687   0.000000   0.000000
   72        9.377251      9.377288   0.000000   0.000000
   73        9.466854      9.466888   0.000000   0.000000
   74        9.579272      9.579318   0.000000   0.000000
   75        9.774269      9.774323   0.000000   0.000000
   76        9.924591      9.924636   0.000000   0.000000
   77       10.276484     10.276520   0.000000   0.000000
   78       10.506155     10.506194   0.000000   0.000000
   79       10.523133     10.523183   0.000000   0.000000
   80       10.570077     10.570128   0.000000   0.000000
   81       10.700614     10.700668   0.000000   0.000000
   82       10.838186     10.838214   0.000000   0.000000
   83       11.052156     11.052213   0.000000   0.000000
   84       11.225153     11.225190   0.000000   0.000000
   85       11.628975     11.629024   0.000000   0.000000
   86       11.936766     11.936895   0.000000   0.000000
 
  0.0000000E+00  0.2000000E+00  0.5334075E-17  0.1428571E-01
    1      -41.898803    -41.898869   1.000000   1.000000
    2      -41.898295    -41.898360   1.000000   1.000000
    3      -41.783953    -41.784022   1.000000   1.000000
    4      -41.783348    -41.783417   1.000000   1.000000
    5      -41.724353    -41.724433   1.000000   1.000000
    6      -41.710313    -41.710393   1.000000   1.000000
    7      -41.693942    -41.694008   1.000000   1.000000
    8      -41.693790    -41.693856   1.000000   1.000000
    9      -20.047211    -20.047203   1.000000   1.000000
   10      -20.000102    -20.000096   1.000000   1.000000
   11      -18.865197    -18.865192   1.000000   1.000000
   12      -18.852335    -18.852330   1.000000   1.000000
   13      -17.523779    -17.523787   1.000000   1.000000
   14      -17.485492    -17.485500   1.000000   1.000000
   15      -16.959727    -16.959741   1.000000   1.000000
   16      -16.906746    -16.906762   1.000000   1.000000
   17      -16.784903    -16.784918   1.000000   1.000000
   18      -16.775831    -16.775845   1.000000   1.000000
   19      -16.676619    -16.676635   1.000000   1.000000
   20      -16.666143    -16.666159   1.000000   1.000000
   21      -16.626841    -16.626859   1.000000   1.000000
   22      -16.623234    -16.623251   1.000000   1.000000
   23       -8.530461     -8.530443   1.000000   1.000000
   24       -8.512632     -8.512616   1.000000   1.000000
   25       -6.018767     -6.018716   1.000000   1.000000
   26       -5.601471     -5.601434   1.000000   1.000000
   27       -5.044098     -5.044059   1.000000   1.000000
   28       -4.904661     -4.904628   1.000000   1.000000
   29       -4.557176     -4.557144   1.000000   1.000000
   30       -4.344997     -4.344967   1.000000   1.000000
   31       -4.255862     -4.255837   1.000000   1.000000
   32       -4.244268     -4.244244   1.000000   1.000000
   33       -3.859858     -3.859824   1.000000   1.000000
   34       -3.826141     -3.826113   1.000000   1.000000
   35       -3.699438     -3.699412   1.000000   1.000000
   36       -3.526601     -3.526573   1.000000   1.000000
   37       -3.110029     -3.110002   1.000000   1.000000
   38       -2.905143     -2.905119   1.000000   1.000000
   39       -2.307138     -2.307129   1.000000   1.000000
   40       -2.165912     -2.165910   1.000000   1.000000
   41       -2.139137     -2.139134   1.000000   1.000000
   42       -2.036187     -2.036180   1.000000   1.000000
   43       -1.919015     -1.918995   1.000000   1.000000
   44       -1.628187     -1.628182   1.000000   1.000000
   45       -1.559265     -1.559261   1.000000   1.000000
   46       -1.411719     -1.411720   1.000000   1.000000
   47       -1.295676     -1.295674   1.000000   1.000000
   48       -1.245258     -1.245259   1.000000   1.000000
   49       -1.090685     -1.090685   1.000000   1.000000
   50       -1.082195     -1.082197   1.000000   1.000000
   51       -1.034787     -1.034789   1.000000   1.000000
   52       -0.844677     -0.844682   1.000000   1.000000
   53       -0.643211     -0.643215   1.000000   1.000000
   54       -0.400083     -0.400089   1.000000   1.000000
   55       -0.316139     -0.316150   1.000000   1.000000
   56       -0.257783     -0.257794   1.000000   1.000000
   57       -0.137242     -0.137250   1.000000   1.000000
   58       -0.065193     -0.065188   1.000000   1.000000
   59       -0.018019     -0.018015   1.000000   1.000000
   60        0.052918      0.052918   1.000000   1.000000
   61        0.169815      0.169809   1.000000   1.000000
   62        0.235797      0.235781   1.000000   1.000000
   63        0.409438      0.409425   1.000000   1.000000
   64        0.439660      0.439646   1.000000   1.000000
   65        6.409914      6.409957  -0.000000  -0.000000
   66        8.159713      8.159721   0.000000   0.000000
   67        8.476876      8.476908   0.000000   0.000000
   68        8.865179      8.865222   0.000000   0.000000
   69        8.900441      8.900476   0.000000   0.000000
   70        9.151330      9.151380   0.000000   0.000000
   71        9.314959      9.315001   0.000000   0.000000
   72        9.438896      9.438937   0.000000   0.000000
   73        9.803462      9.803502   0.000000   0.000000
   74        9.825686      9.825725   0.000000   0.000000
   75       10.007005     10.007056   0.000000   0.000000
   76       10.301057     10.301113   0.000000   0.000000
   77       10.429445     10.429484   0.000000   0.000000
   78       10.687858     10.687913   0.000000   0.000000
   79       10.742111     10.742132   0.000000   0.000000
   80       11.026250     11.026288   0.000000   0.000000
   81       11.150517     11.150585   0.000000   0.000000
   82       11.281871     11.281930   0.000000   0.000000
   83       11.296206     11.296250   0.000000   0.000000
   84       11.537796     11.537835   0.000000   0.000000
   85       11.683969     11.685972   0.000000   0.000000
   86       11.916439     11.906246   0.000000   0.000000
 
  0.1428571E+00  0.2000000E+00  0.2063351E-14  0.1428571E-01
    1      -41.898788    -41.898854   1.000000   1.000000
    2      -41.898297    -41.898362   1.000000   1.000000
    3      -41.783910    -41.783979   1.000000   1.000000
    4      -41.783316    -41.783385   1.000000   1.000000
    5      -41.724259    -41.724339   1.000000   1.000000
    6      -41.710511    -41.710591   1.000000   1.000000
    7      -41.693984    -41.694050   1.000000   1.000000
    8      -41.693722    -41.693789   1.000000   1.000000
    9      -20.037415    -20.037408   1.000000   1.000000
   10      -20.002414    -20.002408   1.000000   1.000000
   11      -18.878077    -18.878071   1.000000   1.000000
   12      -18.845833    -18.845829   1.000000   1.000000
   13      -17.510973    -17.510981   1.000000   1.000000
   14      -17.490233    -17.490241   1.000000   1.000000
   15      -16.956877    -16.956891   1.000000   1.000000
   16      -16.903889    -16.903905   1.000000   1.000000
   17      -16.795590    -16.795604   1.000000   1.000000
   18      -16.778462    -16.778477   1.000000   1.000000
   19      -16.678664    -16.678679   1.000000   1.000000
   20      -16.671295    -16.671311   1.000000   1.000000
   21      -16.631092    -16.631109   1.000000   1.000000
   22      -16.625221    -16.625238   1.000000   1.000000
   23       -8.554739     -8.554720   1.000000   1.000000
   24       -8.515316     -8.515299   1.000000   1.000000
   25       -5.997452     -5.997403   1.000000   1.000000
   26       -5.582165     -5.582127   1.000000   1.000000
   27       -5.032281     -5.032244   1.000000   1.000000
   28       -4.891950     -4.891918   1.000000   1.000000
   29       -4.537876     -4.537842   1.000000   1.000000
   30       -4.328853     -4.328822   1.000000   1.000000
   31       -4.243136     -4.243109   1.000000   1.000000
   32       -4.229221     -4.229199   1.000000   1.000000
   33       -3.881339     -3.881303   1.000000   1.000000
   34       -3.746775     -3.746747   1.000000   1.000000
   35       -3.630782     -3.630754   1.000000   1.000000
   36       -3.527571     -3.527541   1.000000   1.000000
   37       -3.066242     -3.066214   1.000000   1.000000
   38       -2.864455     -2.864433   1.000000   1.000000
   39       -2.264227     -2.264221   1.000000   1.000000
   40       -2.202993     -2.202988   1.000000   1.000000
   41       -2.118762     -2.118755   1.000000   1.000000
   42       -2.059615     -2.059610   1.000000   1.000000
   43       -1.964434     -1.964416   1.000000   1.000000
   44       -1.654061     -1.654057   1.000000   1.000000
   45       -1.544226     -1.544219   1.000000   1.000000
   46       -1.435378     -1.435378   1.000000   1.000000
   47       -1.288533     -1.288531   1.000000   1.000000
   48       -1.264623     -1.264622   1.000000   1.000000
   49       -1.173348     -1.173348   1.000000   1.000000
   50       -1.143564     -1.143565   1.000000   1.000000
   51       -1.078976     -1.078975   1.000000   1.000000
   52       -0.918946     -0.918951   1.000000   1.000000
   53       -0.610232     -0.610234   1.000000   1.000000
   54       -0.427677     -0.427684   1.000000   1.000000
   55       -0.363133     -0.363146   1.000000   1.000000
   56       -0.256520     -0.256529   1.000000   1.000000
   57       -0.162157     -0.162166   1.000000   1.000000
   58       -0.106379     -0.106379   1.000000   1.000000
   59        0.007191      0.007189   1.000000   1.000000
   60        0.066675      0.066678   1.000000   1.000000
   61        0.204340      0.204333   1.000000   1.000000
   62        0.218915      0.218900   1.000000   1.000000
   63        0.396748      0.396734   1.000000   1.000000
   64        0.454102      0.454089   1.000000   1.000000
   65        6.734102      6.734140   0.000000   0.000000
   66        8.056806      8.056815   0.000000   0.000000
   67        8.282556      8.282588   0.000000   0.000000
   68        8.895420      8.895458   0.000000   0.000000
   69        8.940317      8.940357   0.000000   0.000000
   70        9.126319      9.126363   0.000000   0.000000
   71        9.379607      9.379647   0.000000   0.000000
   72        9.464361      9.464397   0.000000   0.000000
   73        9.837235      9.837285   0.000000   0.000000
   74       10.036552     10.036600   0.000000   0.000000
   75       10.054000     10.054031   0.000000   0.000000
   76       10.161684     10.161730   0.000000   0.000000
   77       10.259050     10.259099   0.000000   0.000000