   16   16    1    2
  0.1381473E+02  0.5206704E-09  0.5206704E-09  0.9539697E-09  0.5000000E-15
  1.000000000000000E-004
  CAR 
 unknown system                          
     80     60     56
 
  0.0000000E+00  0.0000000E+00  0.0000000E+00  0.5102041E-02
    1      -16.566005    -16.565715   1.000000   1.000000
    2      -15.895283    -15.895009   1.000000   1.000000
    3      -14.900464    -14.900194   1.000000   1.000000
    4      -12.918034    -12.917814   1.000000   1.000000
    5      -12.793708    -12.793517   1.000000   1.000000
    6      -12.550361    -12.550215   1.000000   1.000000
    7      -12.509410    -12.509257   1.000000   1.000000
    8      -12.400482    -12.400284   1.000000   1.000000
    9      -12.327921    -12.327753   1.000000   1.000000
   10      -11.880895    -11.880763   1.000000   1.000000
   11       -9.299925     -9.299660   1.000000   1.000000
   12       -9.196994     -9.196687   1.000000   1.000000
   13       -9.026917     -9.026588   1.000000   1.000000
   14       -6.249135     -6.248857   1.000000   1.000000
   15       -6.243563     -6.243268   1.000000   1.000000
   16       -5.366920     -5.366599   1.000000   1.000000
   17       -4.832230     -4.831948   1.000000   1.000000
   18       -4.302653     -4.302365   1.000000   1.000000
   19       -3.816541     -3.816229   1.000000   1.000000
   20       -3.643446     -3.643040   1.000000   1.000000
   21       -2.994195     -2.993898   1.000000   1.000000
   22       -2.981945     -2.981620   1.000000   1.000000
   23       -2.944951     -2.944671   1.000000   1.000000
   24       -2.461844     -2.461585   1.000000   1.000000
   25       -0.459519     -0.459164   1.000000   1.000000
   26       -0.025823     -0.025497   1.000000   1.000000
   27        0.034342      0.034646   1.000000   1.000000
   28        0.064920      0.065227   1.000000   1.000000
   29        0.086961      0.087244   1.000000   1.000000
   30        0.678849      0.679145   1.000000   1.000000
   31        0.679288      0.679556   1.000000   1.000000
   32        0.774152      0.774383   1.000000   1.000000
   33        0.916001      0.916287   1.000000   1.000000
   34        1.332871      1.333113   1.000000   1.000000
   35        1.505640      1.505887   1.000000   1.000000
   36        1.948591      1.948767   1.000000   1.000000
   37        1.983465      1.983634   1.000000   1.000000
   38        2.403617      2.403807   1.000000   1.000000
   39        2.726038      2.726155   1.000000   1.000000
   40        3.127168      3.127274   1.000000   1.000000
   41        6.339790      6.340197   0.000000   0.000000
   42        6.833114      6.833657   0.000000   0.000000
   43        7.581023      7.581476   0.000000   0.000000
   44        7.712644      7.713104   0.000000   0.000000
   45        8.019344      8.019965   0.000000   0.000000
   46        8.102771      8.103400   0.000000   0.000000
   47        8.276966      8.277217   0.000000   0.000000
   48        8.722117      8.722667   0.000000   0.000000
   49        8.770378      8.770821   0.000000   0.000000
   50        8.911250      8.911675   0.000000   0.000000
   51        9.123724      9.124002   0.000000   0.000000
   52       10.030344     10.030987   0.000000   0.000000
   53       10.334511     10.334949   0.000000   0.000000
   54       10.555043     10.555120   0.000000   0.000000
   55       10.724619     10.727880   0.000000   0.000000
   56       10.790385     10.790950   0.000000   0.000000
 
  0.1428571E+00  0.6024512E-17  0.8144268E-16  0.2040816E-01
    1      -16.510216    -16.509927   1.000000   1.000000
    2      -15.888111    -15.887837   1.000000   1.000000
    3      -14.856064    -14.855795   1.000000   1.000000
    4      -13.289561    -13.289330   1.000000   1.000000
    5      -13.002884    -13.002687   1.000000   1.000000
    6      -12.610632    -12.610466   1.000000   1.000000
    7      -12.471311    -12.471153   1.000000   1.000000
    8      -12.292653    -12.292490   1.000000   1.000000
    9      -12.037544    -12.037382   1.000000   1.000000
   10      -11.869459    -11.869327   1.000000   1.000000
   11       -9.798177     -9.797870   1.000000   1.000000
   12       -8.867462     -8.867142   1.000000   1.000000
   13       -8.497723     -8.497446   1.000000   1.000000
   14       -6.590414     -6.590138   1.000000   1.000000
   15       -6.003857     -6.003569   1.000000   1.000000
   16       -5.364676     -5.364360   1.000000   1.000000
   17       -4.835187     -4.834901   1.000000   1.000000
   18       -4.426199     -4.425902   1.000000   1.000000
   19       -3.690343     -3.689983   1.000000   1.000000
   20       -3.652058     -3.651721   1.000000   1.000000
   21       -3.180265     -3.179941   1.000000   1.000000
   22       -2.944690     -2.944407   1.000000   1.000000
   23       -2.840832     -2.840535   1.000000   1.000000
   24       -2.482079     -2.481826   1.000000   1.000000
   25       -0.596637     -0.596272   1.000000   1.000000
   26       -0.293372     -0.293058   1.000000   1.000000
   27       -0.017216     -0.016900   1.000000   1.000000
   28        0.143152      0.143442   1.000000   1.000000
   29        0.368015      0.368301   1.000000   1.000000
   30        0.620725      0.621000   1.000000   1.000000
   31        0.709419      0.709690   1.000000   1.000000
   32        0.805586      0.805857   1.000000   1.000000
   33        0.932366      0.932638   1.000000   1.000000
   34        1.300516      1.300770   1.000000   1.000000
   35        1.593675      1.593909   1.000000   1.000000
   36        1.883983      1.884165   1.000000   1.000000
   37        1.956500      1.956679   1.000000   1.000000
   38        2.344993      2.345185   1.000000   1.000000
   39        2.674370      2.674495   1.000000   1.000000
   40        3.012445      3.012567   1.000000   1.000000
   41        6.574635      6.575037   0.000000   0.000000
   42        6.721826      6.722340   0.000000   0.000000
   43        7.489138      7.489668   0.000000   0.000000
   44        7.623895      7.624465   0.000000   0.000000
   45        7.959044      7.959549   0.000000   0.000000
   46        8.121281      8.121839   0.000000   0.000000
   47        8.359178      8.359664   0.000000   0.000000
   48        8.616854      8.617304   0.000000   0.000000
   49        8.753411      8.753695   0.000000   0.000000
   50        9.278794      9.279248   0.000000   0.000000
   51        9.476580      9.476921   0.000000   0.000000
   52        9.727643      9.728136   0.000000   0.000000
   53       10.185009     10.185287   0.000000   0.000000
   54       10.637500     10.638212   0.000000   0.000000
   55       10.815875     10.816689   0.000000   0.000000
   56       11.190028     11.142891   0.000000   0.000000
 
  0.2857143E+00  0.6727324E-17  0.9345955E-16  0.2040816E-01
    1      -16.356690    -16.356404   1.000000   1.000000
    2      -15.888187    -15.887912   1.000000   1.000000
    3      -14.759650    -14.759386   1.000000   1.000000
    4      -13.731749    -13.731506   1.000000   1.000000
    5      -13.341367    -13.341154   1.000000   1.000000
    6      -12.721075    -12.720887   1.000000   1.000000
    7      -12.457888    -12.457731   1.000000   1.000000
    8      -12.192761    -12.192605   1.000000   1.000000
    9      -11.858244    -11.858114   1.000000   1.000000
   10      -11.807966    -11.807827   1.000000   1.000000
   11       -9.905477     -9.905157   1.000000   1.000000
   12       -8.498320     -8.498016   1.000000   1.000000
   13       -7.902933     -7.902655   1.000000   1.000000
   14       -6.804123     -6.803855   1.000000   1.000000
   15       -5.866577     -5.866301   1.000000   1.000000
   16       -5.466689     -5.466386   1.000000   1.000000
   17       -4.837625     -4.837324   1.000000   1.000000
   18       -4.606632     -4.606344   1.000000   1.000000
   19       -3.697806     -3.697414   1.000000   1.000000
   20       -3.491162     -3.490851   1.000000   1.000000
   21       -3.258502     -3.258209   1.000000   1.000000
   22       -2.994494     -2.994209   1.000000   1.000000
   23       -2.756411     -2.756123   1.000000   1.000000
   24       -2.570620     -2.570366   1.000000   1.000000
   25       -0.725026     -0.724651   1.000000   1.000000
   26       -0.599873     -0.599552   1.000000   1.000000
   27       -0.220760     -0.220462   1.000000   1.000000
   28        0.120278      0.120599   1.000000   1.000000
   29        0.463895      0.464193   1.000000   1.000000
   30        0.693816      0.694076   1.000000   1.000000
   31        0.772906      0.773183   1.000000   1.000000
   32        0.921191      0.921456   1.000000   1.000000
   33        1.105862      1.106119   1.000000   1.000000
   34        1.306163      1.306425   1.000000   1.000000
   35        1.609277      1.609499   1.000000   1.000000
   36        1.802716      1.802906   1.000000   1.000000
   37        1.847508      1.847720   1.000000   1.000000
   38        2.229553      2.229750   1.000000   1.000000
   39        2.579013      2.579157   1.000000   1.000000
   40        2.854411      2.854548   1.000000   1.000000
   41        6.577741      6.578234   0.000000   0.000000
   42        6.760256      6.760811   0.000000   0.000000
   43        7.295325      7.295768   0.000000   0.000000
   44        7.574539      7.575106   0.000000   0.000000
   45        8.086013      8.086572   0.000000   0.000000
   46        8.112970      8.113502   0.000000   0.000000
   47        8.559570      8.560115   0.000000   0.000000
   48        8.852296      8.852722   0.000000   0.000000
   49        9.214190      9.214467   0.000000   0.000000
   50        9.264949      9.265447   0.000000   0.000000
   51        9.527761      9.528244   0.000000   0.000000
   52       10.005891     10.006073   0.000000   0.000000
   53       10.053691     10.054098   0.000000   0.000000
   54       10.446766     10.447224   0.000000   0.000000
   55       10.724241     10.724139   0.000000   0.000000
   56       11.100794     11.111773   0.000000   0.000000
 
  0.4285714E+00  0.6826343E-16  0.2473949E-15  0.2040816E-01
    1      -16.158952    -16.158670   1.000000   1.000000
    2      -15.949558    -15.949283   1.000000   1.000000
    3      -14.705439    -14.705179   1.000000   1.000000
    4      -13.930464    -13.930214   1.000000   1.000000
    5      -13.593444    -13.593223   1.000000   1.000000
    6      -12.838559    -12.838352   1.000000   1.000000
    7      -12.455610    -12.455455   1.000000   1.000000
    8      -12.094630    -12.094478   1.000000   1.000000
    9      -11.875389    -11.875252   1.000000   1.000000
   10      -11.826124    -11.825993   1.000000   1.000000
   11       -9.688694     -9.688382   1.000000   1.000000
   12       -8.166380     -8.166090   1.000000   1.000000
   13       -7.956804     -7.956525   1.000000   1.000000
   14       -6.388948     -6.388668   1.000000   1.000000
   15       -5.817422     -5.817139   1.000000   1.000000
   16       -5.793078     -5.792814   1.000000   1.000000
   17       -4.897969     -4.897671   1.000000   1.000000
   18       -4.664623     -4.664329   1.000000   1.000000
   19       -3.631199     -3.630843   1.000000   1.000000
   20       -3.467620     -3.467278   1.000000   1.000000
   21       -3.196242     -3.195969   1.000000   1.000000
   22       -3.093013     -3.092741   1.000000   1.000000
   23       -2.738274     -2.738007   1.000000   1.000000
   24       -2.665528     -2.665236   1.000000   1.000000
   25       -0.807069     -0.806729   1.000000   1.000000
   26       -0.718558     -0.718184   1.000000   1.000000
   27       -0.516493     -0.516191   1.000000   1.000000
   28        0.196436      0.196755   1.000000   1.000000
   29        0.386529      0.386847   1.000000   1.000000
   30        0.743801      0.744074   1.000000   1.000000
   31        0.920348      0.920607   1.000000   1.000000
   32        0.970452      0.970702   1.000000   1.000000
   33        1.262880      1.263136   1.000000   1.000000
   34        1.326973      1.327232   1.000000   1.000000
   35        1.450473      1.450699   1.000000   1.000000
   36        1.708770      1.708985   1.000000   1.000000
   37        1.861441      1.861648   1.000000   1.000000
   38        2.156342      2.156543   1.000000   1.000000
   39        2.497960      2.498122   1.000000   1.000000
   40        2.859116      2.859236   1.000000   1.000000
   41        6.312926      6.313578   0.000000   0.000000
   42        6.565524      6.565981   0.000000   0.000000
   43        7.610477      7.610908   0.000000   0.000000
   44        7.716878      7.717461   0.000000   0.000000
   45        8.252572      8.253073   0.000000   0.000000
   46        8.408344      8.408886   0.000000   0.000000
   47        8.710423      8.710928   0.000000   0.000000
   48        8.908532      8.909020   0.000000   0.000000
   49        9.168512      9.169011   0.000000   0.000000
   50        9.332649      9.333160   0.000000   0.000000
   51        9.554081      9.554623   0.000000   0.000000
   52        9.759100      9.759611   0.000000   0.000000
   53       10.265836     10.266266   0.000000   0.000000
   54       10.449113     10.449011   0.000000   0.000000
   55       10.657155     10.657437   0.000000   0.000000
   56       11.073589     11.068942   0.000000   0.000000
 
  0.1428571E+00  0.1428571E+00  0.1628854E-15  0.1020408E-01
    1      -16.458041    -16.457753   1.000000   1.000000
    2      -15.905936    -15.905660   1.000000   1.000000
    3      -14.754833    -14.754567   1.000000   1.000000
    4      -13.361407    -13.361176   1.000000   1.000000
    5      -13.041003    -13.040802   1.000000   1.000000
    6      -13.040800    -13.040602   1.000000   1.000000
    7      -12.378539    -12.378388   1.000000   1.000000
    8      -12.191956    -12.191795   1.000000   1.000000
    9      -12.090306    -12.090151   1.000000   1.000000
   10      -11.881279    -11.881146   1.000000   1.000000
   11       -9.086381     -9.086108   1.000000   1.000000
   12       -8.900113     -8.899814   1.000000   1.000000
   13       -8.772773     -8.772456   1.000000   1.000000
   14       -6.841555     -6.841283   1.000000   1.000000
   15       -5.655264     -5.654973   1.000000   1.000000
   16       -5.355652     -5.355338   1.000000   1.000000
   17       -4.803599     -4.803327   1.000000   1.000000
   18       -4.374902     -4.374614   1.000000   1.000000
   19       -3.773427     -3.773029   1.000000   1.000000
   20       -3.756274     -3.755981   1.000000   1.000000
   21       -3.129506     -3.129181   1.000000   1.000000
   22       -3.016225     -3.015926   1.000000   1.000000
   23       -2.854272     -2.853981   1.000000   1.000000
   24       -2.516101     -2.515848   1.000000   1.000000
   25       -0.665697     -0.665309   1.000000   1.000000
   26       -0.291166     -0.290847   1.000000   1.000000
   27       -0.214696     -0.214408   1.000000   1.000000
   28        0.141312      0.141640   1.000000   1.000000
   29        0.344501      0.344774   1.000000   1.000000
   30        0.659481      0.659750   1.000000   1.000000
   31        0.718436      0.718696   1.000000   1.000000
   32        0.908350      0.908589   1.000000   1.000000
   33        0.983236      0.983518   1.000000   1.000000
   34        1.336954      1.337215   1.000000   1.000000
   35        1.624246      1.624476   1.000000   1.000000
   36        1.866021      1.866213   1.000000   1.000000
   37        1.905166      1.905348   1.000000   1.000000
   38        2.299202      2.299395   1.000000   1.000000
   39        2.575269      2.575415   1.000000   1.000000
   40        2.934157      2.934293   1.000000   1.000000
   41        6.658555      6.658945   0.000000   0.000000
   42        7.052654      7.053198   0.000000   0.000000
   43        7.232864      7.233418   0.000000   0.000000
   44        7.443492      7.444132   0.000000   0.000000
   45        7.826289      7.826728   0.000000   0.000000
   46        8.253785      8.254350   0.000000   0.000000
   47        8.336327      8.336826   0.000000   0.000000
   48        8.549403      8.549867   0.000000   0.000000
   49        9.006567      9.006645   0.000000   0.000000
   50        9.308400      9.308759   0.000000   0.000000
   51        9.417233      9.417708   0.000000   0.000000
   52        9.968969      9.969319   0.000000   0.000000
   53       10.297927     10.298533   0.000000   0.000000
   54       10.370110     10.370539   0.000000   0.000000
   55       10.826002     10.825530   0.000000   0.000000
   56       11.139147     11.124060   0.000000   0.000000
 
  0.2857143E+00  0.1428571E+00  0.1918838E-15  0.2040816E-01
    1      -16.304083    -16.303798   1.000000   1.000000
    2      -15.908214    -15.907939   1.000000   1.000000
    3      -14.623087    -14.622827   1.000000   1.000000
    4      -13.750749    -13.750506   1.000000   1.000000
    5      -13.446882    -13.446667   1.000000   1.000000
    6      -13.079325    -13.079117   1.000000   1.000000
    7      -12.346631    -12.346477   1.000000   1.000000
    8      -12.165828    -12.165671   1.000000   1.000000
    9      -11.957628    -11.957483   1.000000   1.000000
   10      -11.866528    -11.866394   1.000000   1.000000
   11       -9.159190     -9.158901   1.000000   1.000000
   12       -8.505288     -8.504985   1.000000   1.000000
   13       -8.245445     -8.245158   1.000000   1.000000
   14       -7.012649     -7.012384   1.000000   1.000000
   15       -5.509454     -5.509180   1.000000   1.000000
   16       -5.389767     -5.389459   1.000000   1.000000
   17       -4.790944     -4.790669   1.000000   1.000000
   18       -4.504715     -4.504431   1.000000   1.000000
   19       -3.889829     -3.889450   1.000000   1.000000
   20       -3.689377     -3.689076   1.000000   1.000000
   21       -3.208306     -3.208002   1.000000   1.000000
   22       -2.935611     -2.935303   1.000000   1.000000
   23       -2.889889     -2.889599   1.000000   1.000000
   24       -2.558342     -2.558087   1.000000   1.000000
   25       -0.775571     -0.775185   1.000000   1.000000
   26       -0.445559     -0.445242   1.000000   1.000000
   27       -0.359953     -0.359639   1.000000   1.000000
   28        0.042695      0.043014   1.000000   1.000000
   29        0.354509      0.354811   1.000000   1.000000
   30        0.577743      0.578011   1.000000   1.000000
   31        0.768420      0.768675   1.000000   1.000000
   32        1.043281      1.043524   1.000000   1.000000
   33        1.200442      1.200698   1.000000   1.000000
   34        1.371194      1.371452   1.000000   1.000000
   35        1.610480      1.610700   1.000000   1.000000
   36        1.749135      1.749331   1.000000   1.000000
   37        1.887466      1.887681   1.000000   1.000000
   38        2.186264      2.186467   1.000000   1.000000
   39        2.475636      2.475796   1.000000   1.000000
   40        2.770539      2.770694   1.000000   1.000000
   41        6.749129      6.749690   0.000000   0.000000
   42        7.050492      7.050942   0.000000   0.000000
   43        7.205261      7.205805   0.000000   0.000000
   44        7.488735      7.489307   0.000000   0.000000
   45        7.752624      7.753129   0.000000   0.000000
   46        8.289418      8.289960   0.000000   0.000000
   47        8.366383      8.366926   0.000000   0.000000
   48        8.668921      8.669374   0.000000   0.000000
   49        9.219327      9.219659   0.000000   0.000000
   50        9.446669      9.446957   0.000000   0.000000
   51        9.758963      9.759250   0.000000   0.000000
   52        9.837912      9.838262   0.000000   0.000000
   53       10.213894     10.214328   0.000000   0.000000
   54       10.470382     10.470822   0.000000   0.000000
   55       10.793951     10.794420   0.000000   0.000000
   56       11.023523     11.024169   0.000000   0.000000
 
  0.4285714E+00  0.1428571E+00  0.2285893E-15  0.2040816E-01
    1      -16.098912    -16.098632   1.000000   1.000000
    2      -15.942796    -15.942521   1.000000   1.000000
    3      -14.602628    -14.602370   1.000000   1.000000
    4      -14.042782    -14.042532   1.000000   1.000000
    5      -13.668879    -13.668653   1.000000   1.000000
    6      -13.043223    -13.043009   1.000000   1.000000
    7      -12.354298    -12.354142   1.000000   1.000000
    8      -12.125340    -12.125187   1.000000   1.000000
    9      -11.952061    -11.951914   1.000000   1.000000
   10      -11.865526    -11.865394   1.000000   1.000000
   11       -9.203685     -9.203394   1.000000   1.000000
   12       -8.152381     -8.152090   1.000000   1.000000
   13       -8.033931     -8.033651   1.000000   1.000000
   14       -6.584773     -6.584502   1.000000   1.000000
   15       -5.860375     -5.860098   1.000000   1.000000
   16       -5.470085     -5.469807   1.000000   1.000000
   17       -4.760945     -4.760667   1.000000   1.000000
   18       -4.722623     -4.722328   1.000000   1.000000
   19       -3.805382     -3.805020   1.000000   1.000000
   20       -3.605220     -3.604912   1.000000   1.000000
   21       -3.246952     -3.246663   1.000000   1.000000
   22       -3.049724     -3.049428   1.000000   1.000000
   23       -2.757549     -2.757261   1.000000   1.000000
   24       -2.598583     -2.598317   1.000000   1.000000
   25       -0.839233     -0.838880   1.000000   1.000000
   26       -0.581540     -0.581183   1.000000   1.000000
   27       -0.509645     -0.509333   1.000000   1.000000
   28       -0.016006     -0.015676   1.000000   1.000000
   29        0.439462      0.439766   1.000000   1.000000
   30        0.667367      0.667627   1.000000   1.000000
   31        0.795222      0.795499   1.000000   1.000000
   32        0.984176      0.984433   1.000000   1.000000
   33        1.256100      1.256363   1.000000   1.000000
   34        1.357075      1.357322   1.000000   1.000000
   35        1.444904      1.445132   1.000000   1.000000
   36        1.722945      1.723156   1.000000   1.000000
   37        1.905972      1.906185   1.000000   1.000000
   38        2.173462      2.173658   1.000000   1.000000
   39        2.418118      2.418285   1.000000   1.000000
   40        2.765099      2.765241   1.000000   1.000000
   41        6.375065      6.375709   0.000000   0.000000
   42        6.949444      6.949878   0.000000   0.000000
   43        7.452004      7.452507   0.000000   0.000000
   44        7.737563      7.738117   0.000000   0.000000
   45        8.033601      8.034142   0.000000   0.000000
   46        8.337660      8.338181   0.000000   0.000000
   47        8.406558      8.407100   0.000000   0.000000
   48        8.889956      8.890448   0.000000   0.000000
   49        9.032185      9.032711   0.000000   0.000000
   50        9.454834      9.455206   0.000000   0.000000
   51        9.850356      9.850858   0.000000   0.000000
   52       10.121083     10.121402   0.000000   0.000000
   53       10.285844     10.285903   0.000000   0.000000
   54       10.440907     10.441435   0.000000   0.000000
   55       10.754710     10.755892   0.000000   0.000000
   56       10.992336     10.995765   0.000000   0.000000
 
 -0.4285714E+00  0.1428571E+00 -0.1916135E-17  0.2040816E-01
    1      -16.116932    -16.116651   1.000000   1.000000
    2      -15.875643    -15.875369   1.000000   1.000000
    3      -14.689200    -14.688940   1.000000   1.000000
    4      -14.159225    -14.158975   1.000000   1.000000
    5      -13.644358    -13.644129   1.000000   1.000000
    6      -12.801913    -12.801710   1.000000   1.000000
    7      -12.372249    -12.372092   1.000000   1.000000
    8      -12.082979    -12.082827   1.000000   1.000000
    9      -12.023941    -12.023788   1.000000   1.000000
   10      -11.859508    -11.859378   1.000000   1.000000
   11       -9.594603     -9.594303   1.000000   1.000000
   12       -7.941164     -7.940883   1.000000   1.000000
   13       -7.757070     -7.756797   1.000000   1.000000
   14       -6.347728     -6.347438   1.000000   1.000000
   15       -6.027323     -6.027044   1.000000   1.000000
   16       -5.762521     -5.762263   1.000000   1.000000
   17       -4.942787     -4.942502   1.000000   1.000000
   18       -4.742421     -4.742112   1.000000   1.000000
   19       -3.642188     -3.641838   1.000000   1.000000
   20       -3.536989     -3.536637   1.000000   1.000000
   21       -3.255421     -3.255126   1.000000   1.000000
   22       -3.020075     -3.019821   1.000000   1.000000
   23       -2.768407     -2.768142   1.000000   1.000000
   24       -2.544656     -2.544383   1.000000   1.000000
   25       -0.849776     -0.849449   1.000000   1.000000
   26       -0.585965     -0.585597   1.000000   1.000000
   27       -0.503584     -0.503273   1.000000   1.000000
   28        0.148154      0.148479   1.000000   1.000000
   29        0.376426      0.376738   1.000000   1.000000
   30        0.699589      0.699861   1.000000   1.000000
   31        0.779914      0.780184   1.000000   1.000000
   32        0.906103      0.906386   1.000000   1.000000
   33        1.142363      1.142636   1.000000   1.000000
   34        1.357453      1.357690   1.000000   1.000000
   35        1.468256      1.468494   1.000000   1.000000
   36        1.771054      1.771263   1.000000   1.000000
   37        1.827071      1.827278   1.000000   1.000000
   38        2.167412      2.167608   1.000000   1.000000
   39        2.454639      2.454801   1.000000   1.000000
   40        2.812348      2.812479   1.000000   1.000000
   41        6.383539      6.384188   0.000000   0.000000
   42        6.648884      6.649330   0.000000   0.000000
   43        7.717463      7.718001   0.000000   0.000000
   44        7.849877      7.850372   0.000000   0.000000
   45        8.116337      8.116831   0.000000   0.000000
   46        8.207467      8.207967   0.000000   0.000000
   47        8.488479      8.489078   0.000000   0.000000
   48        8.940102      8.940597   0.000000   0.000000
   49        9.251182      9.251711   0.000000   0.000000
   50        9.350706      9.351292   0.000000   0.000000
   51        9.711287      9.711739   0.000000   0.000000
   52       10.037925     10.038321   0.000000   0.000000
   53       10.432708     10.433101   0.000000   0.000000
   54       10.537653     10.538050   0.000000   0.000000
   55       10.644289     10.642407   0.000000   0.000000
   56       10.722022     10.721793   0.000000   0.000000
 
 -0.2857143E+00  0.1428571E+00  0.1211599E-15  0.2040816E-01
    1      -16.301249    -16.300964   1.000000   1.000000
    2      -15.813376    -15.813105   1.000000   1.000000
    3      -14.794232    -14.793967   1.000000   1.000000
    4      -13.998164    -13.997919   1.000000   1.000000
    5      -13.446537    -13.446315   1.000000   1.000000
    6      -12.514550    -12.514376   1.000000   1.000000
    7      -12.393852    -12.393697   1.000000   1.000000
    8      -12.228502    -12.228342   1.000000   1.000000
    9      -11.861451    -11.861317   1.000000   1.000000
   10      -11.831543    -11.831404   1.000000   1.000000
   11      -10.158255    -10.157924   1.000000   1.000000
   12       -8.171118     -8.170828   1.000000   1.000000
   13       -7.354518     -7.354252   1.000000   1.000000
   14       -6.753581     -6.753304   1.000000   1.000000
   15       -6.343053     -6.342780   1.000000   1.000000
   16       -5.384190     -5.383892   1.000000   1.000000
   17       -4.957801     -4.957504   1.000000   1.000000
   18       -4.805525     -4.805218   1.000000   1.000000
   19       -3.634255     -3.633861   1.000000   1.000000
   20       -3.464152     -3.463801   1.000000   1.000000
   21       -3.141037     -3.140780   1.000000   1.000000
   22       -3.091436     -3.091152   1.000000   1.000000
   23       -2.717508     -2.717256   1.000000   1.000000
   24       -2.493318     -2.493059   1.000000   1.000000
   25       -0.831082     -0.830744   1.000000   1.000000
   26       -0.414450     -0.414123   1.000000   1.000000
   27       -0.231399     -0.231092   1.000000   1.000000
   28        0.192081      0.192400   1.000000   1.000000
   29        0.307808      0.308122   1.000000   1.000000
   30        0.578038      0.578318   1.000000   1.000000
   31        0.725173      0.725464   1.000000   1.000000
   32        0.961824      0.962100   1.000000   1.000000
   33        1.058237      1.058505   1.000000   1.000000
   34        1.360466      1.360721   1.000000   1.000000
   35        1.539723      1.539949   1.000000   1.000000
   36        1.748680      1.748875   1.000000   1.000000
   37        1.843243      1.843455   1.000000   1.000000
   38        2.215794      2.215984   1.000000   1.000000
   39        2.555282      2.555426   1.000000   1.000000
   40        2.824579      2.824716   1.000000   1.000000
   41        6.438918      6.439387   0.000000   0.000000
   42        6.845275      6.845885   0.000000   0.000000
   43        7.469620      7.470133   0.000000   0.000000
   44        7.596867      7.597301   0.000000   0.000000
   45        7.936765      7.937329   0.000000   0.000000
   46        8.422416      8.422925   0.000000   0.000000
   47        8.504716      8.505292   0.000000   0.000000
   48        8.702614      8.703173   0.000000   0.000000
   49        9.176458      9.177009   0.000000   0.000000
   50        9.511969      9.512120   0.000000   0.000000
   51        9.730030      9.730539   0.000000   0.000000
   52       10.026846     10.027281   0.000000   0.000000
   53       10.190500     10.190899   0.000000   0.000000
   54       10.432802     10.433236   0.000000   0.000000
   55       10.661273     10.661529   0.000000   0.000000
   56       10.827683     10.827704   0.000000   0.000000
 