       N       E                     dE             d eps       ncg     rms          rms(c)
DAV:   1     0.450790053544E+03    0.45079E+03   -0.38700E+04 13440   0.129E+03
DAV:   2    -0.944667135435E+02   -0.54526E+03   -0.52041E+03 17136   0.288E+02
DAV:   3    -0.133958024035E+03   -0.39491E+02   -0.39081E+02 16816   0.814E+01
DAV:   4    -0.134796905815E+03   -0.83888E+00   -0.83475E+00 17656   0.124E+01
DAV:   5    -0.134819258234E+03   -0.22352E-01   -0.22326E-01 16560   0.193E+00    0.398E+01
DAV:   6    -0.115792700604E+03    0.19027E+02   -0.64787E+01 15928   0.304E+01    0.193E+01
DAV:   7    -0.118656518198E+03   -0.28638E+01   -0.88856E+00 16280   0.112E+01    0.668E+00
DAV:   8    -0.119452571253E+03   -0.79605E+00   -0.15926E+00 16624   0.448E+00    0.390E+00
DAV:   9    -0.119461723274E+03   -0.91520E-02   -0.11311E-01 16288   0.160E+00    0.194E+00
DAV:  10    -0.119460677247E+03    0.10460E-02   -0.23266E-02 18224   0.793E-01    0.418E-01
DAV:  11    -0.119462752926E+03   -0.20757E-02   -0.54013E-03 16088   0.369E-01    0.251E-01
DAV:  12    -0.119463207844E+03   -0.45492E-03   -0.71631E-04 17976   0.134E-01    0.154E-01
DAV:  13    -0.119463431270E+03   -0.22343E-03   -0.20732E-04 15776   0.699E-02    0.580E-02
DAV:  14    -0.119463475378E+03   -0.44108E-04   -0.32188E-05 14096   0.275E-02    0.182E-02
DAV:  15    -0.119463483290E+03   -0.79127E-05   -0.99176E-06 10440   0.152E-02
   1 F= -.11946348E+03 E0= -.11946348E+03  d E =0.000000E+00  mag=     0.0002
