   96   96    1    2
  0.8658484E+01  0.9403248E-09  0.9403248E-09  0.9403248E-09  0.5000000E-15
  1.000000000000000E-004
  CAR 
 unknown system                          
    368      8    264
 
  0.0000000E+00  0.0000000E+00  0.0000000E+00  0.3703704E-01
    1      -40.854418    -40.854420   1.000000   1.000000
    2      -40.851307    -40.851308   1.000000   1.000000
    3      -40.848524    -40.848525   1.000000   1.000000
    4      -40.845948    -40.845950   1.000000   1.000000
    5      -40.842026    -40.842028   1.000000   1.000000
    6      -40.839572    -40.839574   1.000000   1.000000
    7      -40.836411    -40.836413   1.000000   1.000000
    8      -40.834438    -40.834440   1.000000   1.000000
    9      -40.588319    -40.588321   1.000000   1.000000
   10      -40.586912    -40.586914   1.000000   1.000000
   11      -40.570136    -40.570138   1.000000   1.000000
   12      -40.569329    -40.569331   1.000000   1.000000
   13      -40.561115    -40.561118   1.000000   1.000000
   14      -40.557491    -40.557494   1.000000   1.000000
   15      -40.550725    -40.550728   1.000000   1.000000
   16      -40.549703    -40.549707   1.000000   1.000000
   17      -40.549015    -40.549018   1.000000   1.000000
   18      -40.548477    -40.548480   1.000000   1.000000
   19      -40.540438    -40.540441   1.000000   1.000000
   20      -40.536033    -40.536036   1.000000   1.000000
   21      -40.526426    -40.526429   1.000000   1.000000
   22      -40.526218    -40.526221   1.000000   1.000000
   23      -40.515780    -40.515784   1.000000   1.000000
   24      -40.514805    -40.514809   1.000000   1.000000
   25      -40.512428    -40.512431   1.000000   1.000000
   26      -40.507241    -40.507244   1.000000   1.000000
   27      -40.506414    -40.506417   1.000000   1.000000
   28      -40.506307    -40.506309   1.000000   1.000000
   29      -40.503899    -40.503902   1.000000   1.000000
   30      -40.498717    -40.498720   1.000000   1.000000
   31      -40.487483    -40.487485   1.000000   1.000000
   32      -40.486855    -40.486858   1.000000   1.000000
   33      -40.464340    -40.464344   1.000000   1.000000
   34      -40.462524    -40.462528   1.000000   1.000000
   35      -40.447892    -40.447896   1.000000   1.000000
   36      -40.445616    -40.445620   1.000000   1.000000
   37      -40.436511    -40.436515   1.000000   1.000000
   38      -40.436293    -40.436297   1.000000   1.000000
   39      -40.434710    -40.434714   1.000000   1.000000
   40      -40.433985    -40.433988   1.000000   1.000000
   41      -40.429103    -40.429107   1.000000   1.000000
   42      -40.428861    -40.428865   1.000000   1.000000
   43      -40.408306    -40.408309   1.000000   1.000000
   44      -40.407526    -40.407529   1.000000   1.000000
   45      -40.286397    -40.286401   1.000000   1.000000
   46      -40.286146    -40.286151   1.000000   1.000000
   47      -40.286009    -40.286014   1.000000   1.000000
   48      -40.281144    -40.281148   1.000000   1.000000
   49      -40.280860    -40.280866   1.000000   1.000000
   50      -40.280825    -40.280831   1.000000   1.000000
   51      -39.897260    -39.897259   1.000000   1.000000
   52      -39.897152    -39.897151   1.000000   1.000000
   53      -39.896584    -39.896584   1.000000   1.000000
   54      -39.891223    -39.891223   1.000000   1.000000
   55      -39.891099    -39.891099   1.000000   1.000000
   56      -39.890890    -39.890890   1.000000   1.000000
   57      -12.816516    -12.816527   1.000000   1.000000
   58      -12.811718    -12.811731   1.000000   1.000000
   59      -12.683834    -12.683841   1.000000   1.000000
   60      -12.677675    -12.677686   1.000000   1.000000
   61      -12.677668    -12.677679   1.000000   1.000000
   62      -12.677056    -12.677067   1.000000   1.000000
   63      -12.665184    -12.665194   1.000000   1.000000
   64      -12.665076    -12.665087   1.000000   1.000000
   65       -9.586401     -9.586407   1.000000   1.000000
   66       -9.585185     -9.585191   1.000000   1.000000
   67       -9.572598     -9.572604   1.000000   1.000000
   68       -9.561952     -9.561959   1.000000   1.000000
   69       -9.532857     -9.532864   1.000000   1.000000
   70       -9.529145     -9.529152   1.000000   1.000000
   71       -9.511931     -9.511937   1.000000   1.000000
   72       -9.511018     -9.511025   1.000000   1.000000
   73       -9.495359     -9.495365   1.000000   1.000000
   74       -9.487057     -9.487064   1.000000   1.000000
   75       -9.484404     -9.484411   1.000000   1.000000
   76       -9.480289     -9.480296   1.000000   1.000000
   77       -9.464011     -9.464018   1.000000   1.000000
   78       -9.457970     -9.457977   1.000000   1.000000
   79       -9.455341     -9.455347   1.000000   1.000000
   80       -9.443046     -9.443052   1.000000   1.000000
   81       -9.429192     -9.429198   1.000000   1.000000
   82       -9.409791     -9.409798   1.000000   1.000000
   83       -9.386376     -9.386382   1.000000   1.000000
   84       -9.381849     -9.381855   1.000000   1.000000
   85       -9.352402     -9.352408   1.000000   1.000000
   86       -9.329315     -9.329322   1.000000   1.000000
   87       -9.327538     -9.327544   1.000000   1.000000
   88       -9.319867     -9.319874   1.000000   1.000000
   89       -3.004560     -3.004569   1.000000   1.000000
   90       -2.705995     -2.706004   1.000000   1.000000
   91       -2.694332     -2.694342   1.000000   1.000000
   92       -2.685754     -2.685764   1.000000   1.000000
   93       -2.684497     -2.684507   1.000000   1.000000
   94       -2.597023     -2.597034   1.000000   1.000000
   95       -2.597018     -2.597029   1.000000   1.000000
   96       -2.553963     -2.553974   1.000000   1.000000
   97       -1.146444     -1.146445   1.000000   1.000000
   98       -1.142085     -1.142086   1.000000   1.000000
   99       -1.136445     -1.136447   1.000000   1.000000
  100       -1.100840     -1.100842   1.000000   1.000000
  101       -1.095659     -1.095659   1.000000   1.000000
  102       -1.091961     -1.091962   1.000000   1.000000
  103       -0.930539     -0.930540   1.000000   1.000000
  104       -0.819760     -0.819764   1.000000   1.000000
  105       -0.807357     -0.807361   1.000000   1.000000
  106       -0.802209     -0.802212   1.000000   1.000000
  107       -0.798907     -0.798910   1.000000   1.000000
  108       -0.794513     -0.794516   1.000000   1.000000
  109       -0.781987     -0.781990   1.000000   1.000000
  110       -0.685568     -0.685573   1.000000   1.000000
  111       -0.658885     -0.658890   1.000000   1.000000
  112       -0.632807     -0.632812   1.000000   1.000000
  113       -0.428819     -0.428827   1.000000   1.000000
  114       -0.417627     -0.417634   1.000000   1.000000
  115       -0.411958     -0.411965   1.000000   1.000000
  116       -0.398394     -0.398401   1.000000   1.000000
  117       -0.397626     -0.397632   1.000000   1.000000
  118       -0.312080     -0.312088   1.000000   1.000000
  119       -0.310432     -0.310440   1.000000   1.000000
  120       -0.306123     -0.306131   1.000000   1.000000
  121        1.092758      1.092761   1.000000   1.000000
  122        1.093227      1.093229   1.000000   1.000000
  123        1.318190      1.318192   1.000000   1.000000
  124        1.318763      1.318765   1.000000   1.000000
  125        1.321831      1.321834   1.000000   1.000000
  126        1.337830      1.337830   1.000000   1.000000
  127        1.338519      1.338520   1.000000   1.000000
  128        1.397139      1.397139   1.000000   1.000000
  129        1.434459      1.434459   1.000000   1.000000
  130        1.439752      1.439751   1.000000   1.000000
  131        1.461768      1.461774   1.000000   1.000000
  132        1.463410      1.463416   1.000000   1.000000
  133        1.467213      1.467218   1.000000   1.000000
  134        1.654645      1.654646   1.000000   1.000000
  135        1.714722      1.714723   1.000000   1.000000
  136        1.721351      1.721352   1.000000   1.000000
  137        1.724091      1.724093   1.000000   1.000000
  138        1.756274      1.756272   1.000000   1.000000
  139        1.758296      1.758294   1.000000   1.000000
  140        1.895490      1.895490   1.000000   1.000000
  141        1.903615      1.903613   1.000000   1.000000
  142        1.911889      1.911888   1.000000   1.000000
  143        1.955139      1.955139   1.000000   1.000000
  144        1.961368      1.961368   1.000000   1.000000
  145        1.970361      1.970361   1.000000   1.000000
  146        1.988630      1.988630   1.000000   1.000000
  147        1.993203      1.993202   1.000000   1.000000
  148        1.997658      1.997658   1.000000   1.000000
  149        2.021182      2.021180   1.000000   1.000000
  150        2.080997      2.080994   1.000000   1.000000
  151        2.082282      2.082278   1.000000   1.000000
  152        2.300264      2.300263   1.000000   1.000000
  153        2.317213      2.317212   1.000000   1.000000
  154        2.334437      2.334436   1.000000   1.000000
  155        2.382003      2.382002   1.000000   1.000000
  156        2.398060      2.398058   1.000000   1.000000
  157        2.413495      2.413494   1.000000   1.000000
  158        2.534355      2.534355   1.000000   1.000000
  159        2.538553      2.538554   1.000000   1.000000
  160        2.545161      2.545162   1.000000   1.000000
  161        2.632252      2.632251   1.000000   1.000000
  162        2.636061      2.636060   1.000000   1.000000
  163        2.642073      2.642072   1.000000   1.000000
  164        2.679266      2.679268   1.000000   1.000000
  165        2.914863      2.914861   1.000000   1.000000
  166        2.927399      2.927398   1.000000   1.000000
  167        2.929808      2.929807   1.000000   1.000000
  168        2.941562      2.941559   1.000000   1.000000
  169        2.955659      2.955656   1.000000   1.000000
  170        2.983146      2.983143   1.000000   1.000000
  171        3.172674      3.172671   1.000000   1.000000
  172        3.175986      3.175983   1.000000   1.000000
  173        3.181504      3.181500   1.000000   1.000000
  174        3.312901      3.312898   1.000000   1.000000
  175        3.318046      3.318044   1.000000   1.000000
  176        3.319119      3.319118   1.000000   1.000000
  177        3.389611      3.389608   1.000000   1.000000
  178        3.401590      3.401587   1.000000   1.000000
  179        3.452080      3.452076   1.000000   1.000000
  180        3.452304      3.452301   1.000000   1.000000
  181        3.464604      3.464600   1.000000   1.000000
  182        3.604241      3.604237   1.000000   1.000000
  183        3.613968      3.613963   1.000000   1.000000
  184        3.622779      3.622774   0.999999   1.000000
  185        7.104671      7.104712   0.000000   0.000000
  186        7.108574      7.108607   0.000000   0.000000
  187        7.108686      7.108723   0.000000   0.000000
  188        7.830440      7.830478   0.000000   0.000000
  189        8.009848      8.009897   0.000000   0.000000
  190        8.399381      8.399414   0.000000   0.000000
  191        8.410274      8.410305   0.000000   0.000000
  192        8.425571      8.425605   0.000000   0.000000
  193        8.509095      8.509141   0.000000   0.000000
  194        8.515563      8.515604   0.000000   0.000000
  195        8.930626      8.930660   0.000000   0.000000
  196        9.048239      9.048268   0.000000   0.000000
  197        9.096535      9.096564   0.000000   0.000000
  198        9.137840      9.137873   0.000000   0.000000
  199        9.321769      9.321825   0.000000   0.000000
  200        9.329270      9.329310   0.000000   0.000000
  201        9.341564      9.341600   0.000000   0.000000
  202        9.398295      9.398332   0.000000   0.000000
  203        9.401693      9.401727   0.000000   0.000000
  204        9.401921      9.401961   0.000000   0.000000
  205        9.863708      9.863731   0.000000   0.000000
  206        9.876988      9.877073   0.000000   0.000000
  207        9.903685      9.903724   0.000000   0.000000
  208        9.915225      9.915374   0.000000   0.000000
  209        9.931211      9.931251   0.000000   0.000000
  210        9.945229      9.945226   0.000000   0.000000
  211       10.013553     10.013585   0.000000   0.000000
  212       10.122870     10.122900   0.000000   0.000000
  213       10.158244     10.158271   0.000000   0.000000
  214       10.178857     10.178891   0.000000   0.000000
  215       10.209162     10.209192   0.000000   0.000000
  216       10.213566     10.213593   0.000000   0.000000
  217       11.142355     11.142375   0.000000   0.000000
  218       11.284306     11.284275   0.000000   0.000000
  219       11.297109     11.297012   0.000000   0.000000
  220       11.319354     11.319404   0.000000   0.000000
  221       11.320001     11.320354   0.000000   0.000000
  222       11.331239     11.331246   0.000000   0.000000
  223       11.349529     11.349039   0.000000   0.000000
  224       11.369332     11.369394   0.000000   0.000000
  225       11.384241     11.384673   0.000000   0.000000
  226       11.528339     11.528250   0.000000   0.000000
  227       11.545143     11.545198   0.000000   0.000000
  228       11.592718     11.592722   0.000000   0.000000
  229       11.674971     11.674995   0.000000   0.000000
  230       11.681857     11.681889   0.000000   0.000000
  231       11.687064     11.687067   0.000000   0.000000
  232       11.692469     11.692951   0.000000   0.000000
  233       11.695691     11.695689   0.000000   0.000000
  234       11.723554     11.723603   0.000000   0.000000
  235       11.825088     11.825533   0.000000   0.000000
  236       11.896448     11.896227   0.000000   0.000000
  237       11.909145     11.909302   0.000000   0.000000
  238       12.280204     12.282136   0.000000   0.000000
  239       12.291282     12.292869   0.000000   0.000000
  240       12.295885     12.298641   0.000000   0.000000
  241       12.450676     12.458674   0.000000   0.000000
  242       12.507048     12.507472   0.000000   0.000000
  243       12.539921     12.546930   0.000000   0.000000
  244       12.787232     12.786115   0.000000   0.000000
  245       12.815548     12.827359   0.000000   0.000000
  246       12.845070     12.845137   0.000000   0.000000
  247       12.949500     12.957488   0.000000   0.000000
  248       13.040577     13.021560   0.000000   0.000000
  249       13.062274     13.051141   0.000000   0.000000
  250       13.071863     13.081556   0.000000   0.000000
  251       13.084482     13.086225   0.000000   0.000000
  252       13.096586     13.112911   0.000000   0.000000
  253       13.117607     13.118348   0.000000   0.000000
  254       13.149423     13.157818   0.000000   0.000000
  255       13.184208     13.211113   0.000000   0.000000
  256       13.308674     13.259864   0.000000   0.000000
  257       13.401303     13.383174   0.000000   0.000000
  258       13.418939     13.412351   0.000000   0.000000
  259       13.449327     13.461707   0.000000   0.000000
  260       13.471330     13.488324   0.000000   0.000000
  261       13.568112     13.631519   0.000000   0.000000
  262       13.608880     13.692323   0.000000   0.000000
  263       13.714795     13.702911   0.000000   0.000000
  264       13.925980     13.878097   0.000000   0.000000
 
  0.3333333E+00 -0.6947298E-18  0.0000000E+00  0.1481481E+00
    1      -40.853277    -40.853279   1.000000   1.000000
    2      -40.851616    -40.851617   1.000000   1.000000
    3      -40.847569    -40.847571   1.000000   1.000000
    4      -40.846199    -40.846200   1.000000   1.000000
    5      -40.841956    -40.841959   1.000000   1.000000
    6      -40.840604    -40.840606   1.000000   1.000000
    7      -40.836353    -40.836355   1.000000   1.000000
    8      -40.835275    -40.835277   1.000000   1.000000
    9      -40.587313    -40.587316   1.000000   1.000000
   10      -40.585608    -40.585611   1.000000   1.000000
   11      -40.573127    -40.573129   1.000000   1.000000
   12      -40.569433    -40.569435   1.000000   1.000000
   13      -40.559354    -40.559358   1.000000   1.000000
   14      -40.557003    -40.557007   1.000000   1.000000
   15      -40.553706    -40.553710   1.000000   1.000000
   16      -40.550407    -40.550410   1.000000   1.000000
   17      -40.548259    -40.548263   1.000000   1.000000
   18      -40.546514    -40.546517   1.000000   1.000000
   19      -40.539824    -40.539827   1.000000   1.000000
   20      -40.537360    -40.537364   1.000000   1.000000
   21      -40.525487    -40.525490   1.000000   1.000000
   22      -40.523740    -40.523743   1.000000   1.000000
   23      -40.518066    -40.518070   1.000000   1.000000
   24      -40.516706    -40.516710   1.000000   1.000000
   25      -40.512537    -40.512541   1.000000   1.000000
   26      -40.509163    -40.509166   1.000000   1.000000
   27      -40.506430    -40.506432   1.000000   1.000000
   28      -40.505240    -40.505243   1.000000   1.000000
   29      -40.501806    -40.501809   1.000000   1.000000
   30      -40.497640    -40.497643   1.000000   1.000000
   31      -40.490143    -40.490146   1.000000   1.000000
   32      -40.486670    -40.486672   1.000000   1.000000
   33      -40.463500    -40.463503   1.000000   1.000000
   34      -40.462553    -40.462556   1.000000   1.000000
   35      -40.446371    -40.446375   1.000000   1.000000
   36      -40.444778    -40.444782   1.000000   1.000000
   37      -40.439710    -40.439714   1.000000   1.000000
   38      -40.436536    -40.436540   1.000000   1.000000
   39      -40.433928    -40.433931   1.000000   1.000000
   40      -40.432192    -40.432195   1.000000   1.000000
   41      -40.431863    -40.431866   1.000000   1.000000
   42      -40.428726    -40.428730   1.000000   1.000000
   43      -40.407717    -40.407720   1.000000   1.000000
   44      -40.406329    -40.406332   1.000000   1.000000
   45      -40.286458    -40.286463   1.000000   1.000000
   46      -40.286163    -40.286168   1.000000   1.000000
   47      -40.284799    -40.284804   1.000000   1.000000
   48      -40.282180    -40.282185   1.000000   1.000000
   49      -40.281235    -40.281240   1.000000   1.000000
   50      -40.280913    -40.280919   1.000000   1.000000
   51      -39.897216    -39.897215   1.000000   1.000000
   52      -39.896606    -39.896607   1.000000   1.000000
   53      -39.895925    -39.895924   1.000000   1.000000
   54      -39.892405    -39.892405   1.000000   1.000000
   55      -39.891152    -39.891152   1.000000   1.000000
   56      -39.890906    -39.890907   1.000000   1.000000
   57      -12.814642    -12.814654   1.000000   1.000000
   58      -12.812258    -12.812270   1.000000   1.000000
   59      -12.682535    -12.682542   1.000000   1.000000
   60      -12.678994    -12.679003   1.000000   1.000000
   61      -12.677680    -12.677691   1.000000   1.000000
   62      -12.677343    -12.677354   1.000000   1.000000
   63      -12.665896    -12.665907   1.000000   1.000000
   64      -12.665640    -12.665651   1.000000   1.000000
   65       -9.586791     -9.586798   1.000000   1.000000
   66       -9.573543     -9.573549   1.000000   1.000000
   67       -9.567405     -9.567411   1.000000   1.000000
   68       -9.557591     -9.557597   1.000000   1.000000
   69       -9.535988     -9.535995   1.000000   1.000000
   70       -9.528975     -9.528982   1.000000   1.000000
   71       -9.515675     -9.515681   1.000000   1.000000
   72       -9.511863     -9.511869   1.000000   1.000000
   73       -9.502028     -9.502035   1.000000   1.000000
   74       -9.496429     -9.496435   1.000000   1.000000
   75       -9.483592     -9.483598   1.000000   1.000000
   76       -9.468644     -9.468651   1.000000   1.000000
   77       -9.462540     -9.462547   1.000000   1.000000
   78       -9.459062     -9.459068   1.000000   1.000000
   79       -9.451922     -9.451928   1.000000   1.000000
   80       -9.448369     -9.448375   1.000000   1.000000
   81       -9.435577     -9.435583   1.000000   1.000000
   82       -9.416328     -9.416335   1.000000   1.000000
   83       -9.380419     -9.380425   1.000000   1.000000
   84       -9.372875     -9.372881   1.000000   1.000000
   85       -9.349517     -9.349523   1.000000   1.000000
   86       -9.336495     -9.336501   1.000000   1.000000
   87       -9.329785     -9.329792   1.000000   1.000000
   88       -9.324409     -9.324416   1.000000   1.000000
   89       -2.945166     -2.945175   1.000000   1.000000
   90       -2.808954     -2.808964   1.000000   1.000000
   91       -2.691927     -2.691937   1.000000   1.000000
   92       -2.691510     -2.691519   1.000000   1.000000
   93       -2.647901     -2.647912   1.000000   1.000000
   94       -2.601116     -2.601127   1.000000   1.000000
   95       -2.583070     -2.583081   1.000000   1.000000
   96       -2.577337     -2.577348   1.000000   1.000000
   97       -1.123064     -1.123065   1.000000   1.000000
   98       -1.121934     -1.121936   1.000000   1.000000
   99       -1.077507     -1.077508   1.000000   1.000000
  100       -1.071232     -1.071233   1.000000   1.000000
  101       -1.062130     -1.062132   1.000000   1.000000
  102       -1.054964     -1.054965   1.000000   1.000000
  103       -0.980979     -0.980980   1.000000   1.000000
  104       -0.864591     -0.864594   1.000000   1.000000
  105       -0.861180     -0.861184   1.000000   1.000000
  106       -0.856374     -0.856377   1.000000   1.000000
  107       -0.711580     -0.711584   1.000000   1.000000
  108       -0.710748     -0.710752   1.000000   1.000000
  109       -0.693352     -0.693357   1.000000   1.000000
  110       -0.683650     -0.683655   1.000000   1.000000
  111       -0.634645     -0.634650   1.000000   1.000000
  112       -0.625680     -0.625686   1.000000   1.000000
  113       -0.505838     -0.505843   1.000000   1.000000
  114       -0.477043     -0.477050   1.000000   1.000000
  115       -0.476338     -0.476344   1.000000   1.000000
  116       -0.444480     -0.444485   1.000000   1.000000
  117       -0.372813     -0.372820   1.000000   1.000000
  118       -0.369299     -0.369306   1.000000   1.000000
  119       -0.329042     -0.329050   1.000000   1.000000
  120       -0.304584     -0.304592   1.000000   1.000000
  121        1.121119      1.121123   1.000000   1.000000
  122        1.160761      1.160763   1.000000   1.000000
  123        1.263007      1.263008   1.000000   1.000000
  124        1.272648      1.272650   1.000000   1.000000
  125        1.323083      1.323087   1.000000   1.000000
  126        1.324300      1.324304   1.000000   1.000000
  127        1.350425      1.350428   1.000000   1.000000
  128        1.359000      1.359002   1.000000   1.000000
  129        1.378422      1.378426   1.000000   1.000000
  130        1.380012      1.380016   1.000000   1.000000
  131        1.409067      1.409067   1.000000   1.000000
  132        1.445824      1.445824   1.000000   1.000000
  133        1.543857      1.543857   1.000000   1.000000
  134        1.551423      1.551423   1.000000   1.000000
  135        1.594780      1.594780   1.000000   1.000000
  136        1.691201      1.691199   1.000000   1.000000
  137        1.746133      1.746133   1.000000   1.000000
  138        1.747396      1.747397   1.000000   1.000000
  139        1.795888      1.795886   1.000000   1.000000
  140        1.902365      1.902365   1.000000   1.000000
  141        1.907299      1.907299   1.000000   1.000000
  142        1.922252      1.922251   1.000000   1.000000
  143        1.928706      1.928705   1.000000   1.000000
  144        1.931028      1.931027   1.000000   1.000000
  145        1.940111      1.940111   1.000000   1.000000
  146        2.000403      2.000402   1.000000   1.000000
  147        2.013645      2.013644   1.000000   1.000000
  148        2.016503      2.016503   1.000000   1.000000
  149        2.098696      2.098695   1.000000   1.000000
  150        2.201292      2.201290   1.000000   1.000000
  151        2.243987      2.243987   1.000000   1.000000
  152        2.246915      2.246914   1.000000   1.000000
  153        2.290105      2.290102   1.000000   1.000000
  154        2.331064      2.331064   1.000000   1.000000
  155        2.336084      2.336082   1.000000   1.000000
  156        2.484709      2.484708   1.000000   1.000000
  157        2.487790      2.487788   1.000000   1.000000
  158        2.592771      2.592769   1.000000   1.000000
  159        2.593992      2.593990   1.000000   1.000000
  160        2.605705      2.605704   1.000000   1.000000
  161        2.697258      2.697256   1.000000   1.000000
  162        2.713470      2.713468   1.000000   1.000000
  163        2.724492      2.724490   1.000000   1.000000
  164        2.757709      2.757708   1.000000   1.000000
  165        2.864628      2.864629   1.000000   1.000000
  166        2.894563      2.894562   1.000000   1.000000
  167        2.898870      2.898869   1.000000   1.000000
  168        2.957185      2.957183   1.000000   1.000000
  169        3.056629      3.056627   1.000000   1.000000
  170        3.063739      3.063736   1.000000   1.000000
  171        3.102987      3.102985   1.000000   1.000000
  172        3.171456      3.171455   1.000000   1.000000
  173        3.196610      3.196607   1.000000   1.000000
  174        3.217247      3.217244   1.000000   1.000000
  175        3.278000      3.277998   1.000000   1.000000
  176        3.286073      3.286071   1.000000   1.000000
  177        3.306713      3.306710   1.000000   1.000000
  178        3.343845      3.343842   1.000000   1.000000
  179        3.382928      3.382925   1.000000   1.000000
  180        3.384856      3.384853   1.000000   1.000000
  181        3.511923      3.511919   1.000000   1.000000
  182        3.535107      3.535103   1.000000   1.000000
  183        3.536805      3.536801   1.000000   1.000000
  184        3.564655      3.564651   1.000000   1.000000
  185        7.226894      7.226950   0.000000   0.000000
  186        7.495557      7.495586   0.000000   0.000000
  187        7.499207      7.499248   0.000000   0.000000
  188        7.666250      7.666280   0.000000   0.000000
  189        8.127290      8.127328   0.000000   0.000000
  190        8.413967      8.414009   0.000000   0.000000
  191        8.473626      8.473671   0.000000   0.000000
  192        8.483748      8.483794   0.000000   0.000000
  193        8.583909      8.583940   0.000000   0.000000
  194        8.584606      8.584639   0.000000   0.000000
  195        8.752295      8.752331   0.000000   0.000000
  196        8.873665      8.873706   0.000000   0.000000
  197        8.911002      8.911054   0.000000   0.000000
  198        9.073974      9.074001   0.000000   0.000000
  199        9.082158      9.082188   0.000000   0.000000
  200        9.089047      9.089090   0.000000   0.000000
  201        9.333940      9.334011   0.000000   0.000000
  202        9.391379      9.391415   0.000000   0.000000
  203        9.449120      9.449149   0.000000   0.000000
  204        9.483985      9.484016   0.000000   0.000000
  205        9.544094      9.544147   0.000000   0.000000
  206        9.578975      9.579017   0.000000   0.000000
  207        9.599811      9.599854   0.000000   0.000000
  208        9.624510      9.624539   0.000000   0.000000
  209        9.817913      9.818031   0.000000   0.000000
  210        9.955078      9.955249   0.000000   0.000000
  211       10.004802     10.004855   0.000000   0.000000
  212       10.009090     10.009124   0.000000   0.000000
  213       10.102558     10.102593   0.000000   0.000000
  214       10.218064     10.218091   0.000000   0.000000
  215       10.287762     10.287786   0.000000   0.000000
  216       10.310726     10.310767   0.000000   0.000000
  217       11.100007     11.100023   0.000000   0.000000
  218       11.143893     11.143926   0.000000   0.000000
  219       11.211651     11.211605   0.000000   0.000000
  220       11.233950     11.233975   0.000000   0.000000
  221       11.313471     11.313455   0.000000   0.000000
  222       11.320529     11.320579   0.000000   0.000000
  223       11.465451     11.465529   0.000000   0.000000
  224       11.527623     11.527655   0.000000   0.000000
  225       11.559358     11.559458   0.000000   0.000000
  226       11.582791     11.583176   0.000000   0.000000
  227       11.632116     11.632267   0.000000   0.000000
  228       11.693330     11.693528   0.000000   0.000000
  229       11.699954     11.699979   0.000000   0.000000
  230       11.767562     11.767801   0.000000   0.000000
  231       11.783774     11.783749   0.000000   0.000000
  232       11.804996     11.804762   0.000000   0.000000
  233       11.891865     11.891347   0.000000   0.000000
  234       11.902466     11.902880   0.000000   0.000000
  235       11.934477     11.934392   0.000000   0.000000
  236       11.943381     11.944449   0.000000   0.000000
  237       12.031417     12.032433   0.000000   0.000000
  238       12.200088     12.200541   0.000000   0.000000
  239       12.219981     12.218687   0.000000   0.000000
  240       12.240666     12.242297   0.000000   0.000000
  241       12.415003     12.417795   0.000000   0.000000
  242       12.422509     12.423795   0.000000   0.000000
  243       12.612750     12.612596   0.000000   0.000000
  244       12.656056     12.666690   0.000000   0.000000
  245       12.806098     12.812388   0.000000   0.000000
  246       12.844257     12.830284   0.000000   0.000000
  247       12.864506     12.877126   0.000000   0.000000