 running on   24 total cores
 distrk:  each k-point on   24 cores,    1 groups
 distr:  one band on    6 cores,    4 groups
 using from now: INCAR     
 vasp.6.1.2 22Jul20 (build Mar 31 2021 18:09:49) complex                        
  
 POSCAR found type information on POSCAR LiP 
 POSCAR found :  2 types and       8 ions
 scaLAPACK will be used
 -----------------------------------------------------------------------------
|                                                                             |
|               ----> ADVICE to this user running VASP <----                  |
|                                                                             |
|     You have a (more or less) 'small supercell' and for smaller cells       |
|     it is recommended to use the reciprocal-space projection scheme!        |
|     The real-space optimization is not efficient for small cells and it     |
|     is also less accurate ...                                               |
|     Therefore, set LREAL=.FALSE. in the INCAR file.                         |
|                                                                             |
 -----------------------------------------------------------------------------

 LDA part: xc-table for Pade appr. of Perdew
 generate k-points for:    9    9    4
 POSCAR, INCAR and KPOINTS ok, starting setup
 FFT: planning ...
 WAVECAR not read
 entering main loop
       N       E                     dE             d eps       ncg     rms          rms(c)
DAV:   1     0.157834706792E+03    0.15783E+03   -0.11791E+04  9128   0.118E+03
DAV:   2     0.195273051781E+01   -0.15588E+03   -0.14701E+03  9832   0.298E+02
DAV:   3    -0.234142814600E+02   -0.25367E+02   -0.25122E+02 16136   0.695E+01
DAV:   4    -0.262398317812E+02   -0.28256E+01   -0.28032E+01 13576   0.311E+01
DAV:   5    -0.264426944695E+02   -0.20286E+00   -0.20285E+00 14400   0.676E+00    0.149E+01
RMM:   6    -0.269058614919E+02   -0.46317E+00   -0.16353E+00 11163   0.634E+00    0.755E+00
RMM:   7    -0.276081295294E+02   -0.70227E+00   -0.50106E-01 12674   0.429E+00    0.284E+00
RMM:   8    -0.276772320326E+02   -0.69103E-01   -0.38148E-01 14426   0.285E+00    0.118E+00
RMM:   9    -0.276860291870E+02   -0.87972E-02   -0.98195E-02 15194   0.170E+00    0.514E-01
RMM:  10    -0.276944687665E+02   -0.84396E-02   -0.43794E-02 15913   0.103E+00    0.265E-01
RMM:  11    -0.276967260594E+02   -0.22573E-02   -0.16720E-02 16266   0.606E-01    0.196E-01
RMM:  12    -0.276975646904E+02   -0.83863E-03   -0.65650E-03 15951   0.458E-01    0.538E-02
RMM:  13    -0.276981767474E+02   -0.61206E-03   -0.36102E-03 16352   0.282E-01    0.181E-02
RMM:  14    -0.276984131987E+02   -0.23645E-03   -0.19493E-03 15980   0.187E-01    0.224E-02
RMM:  15    -0.276985204426E+02   -0.10724E-03   -0.92674E-04 14321   0.127E-01    0.199E-02
RMM:  16    -0.276985781960E+02   -0.57753E-04   -0.51277E-04 14248   0.936E-02    0.290E-02
RMM:  17    -0.276986005411E+02   -0.22345E-04   -0.29234E-04 13812   0.776E-02    0.149E-02
RMM:  18    -0.276986206735E+02   -0.20132E-04   -0.18862E-04 13291   0.580E-02    0.128E-02
RMM:  19    -0.276986318875E+02   -0.11214E-04   -0.11972E-04 11777   0.470E-02    0.102E-02
WARNING in EDDRMM: call to ZHEGV failed, returncode =   6  3      3
RMM:  20    -0.276986385368E+02   -0.66493E-05   -0.70304E-05 10881   0.395E-02
   1 F= -.27698639E+02 E0= -.27698639E+02  d E =0.000000E+00  mag=    -0.0001
