 running on   12 total cores
 distrk:  each k-point on   12 cores,    1 groups
 distr:  one band on    6 cores,    2 groups
 using from now: INCAR     
 vasp.6.1.2 22Jul20 (build Mar 20 2021 11:25:07) complex                        
  
 POSCAR found type information on POSCAR LiP O 
 POSCAR found :  3 types and      26 ions
 scaLAPACK will be used
 LDA part: xc-table for Pade appr. of Perdew
 generate k-points for:    6    5    4
 POSCAR, INCAR and KPOINTS ok, starting setup
 FFT: planning ...
 WAVECAR not read
 entering main loop
       N       E                     dE             d eps       ncg     rms          rms(c)
DAV:   1     0.111750288166E+04    0.11175E+04   -0.61929E+04 21328   0.152E+03
DAV:   2    -0.625863563103E+02   -0.11801E+04   -0.11090E+04 25640   0.394E+02
DAV:   3    -0.173766192438E+03   -0.11118E+03   -0.11047E+03 27482   0.124E+02
DAV:   4    -0.183357240919E+03   -0.95910E+01   -0.95483E+01 40224   0.295E+01
DAV:   5    -0.184904341338E+03   -0.15471E+01   -0.15466E+01 29864   0.676E+00    0.506E+01
DAV:   6    -0.164824857238E+03    0.20079E+02   -0.89569E+01 26820   0.321E+01    0.260E+01
DAV:   7    -0.166914554897E+03   -0.20897E+01   -0.75353E+00 28304   0.922E+00    0.878E+00
DAV:   8    -0.167194460612E+03   -0.27991E+00   -0.81261E-01 29192   0.361E+00    0.443E+00
DAV:   9    -0.167327920587E+03   -0.13346E+00   -0.14243E-01 28680   0.168E+00    0.185E+00
DAV:  10    -0.167356882358E+03   -0.28962E-01   -0.58292E-02 26136   0.118E+00    0.519E-01
DAV:  11    -0.167367428574E+03   -0.10546E-01   -0.12167E-02 26880   0.470E-01    0.295E-01
DAV:  12    -0.167370301264E+03   -0.28727E-02   -0.21195E-03 27744   0.211E-01    0.158E-01
DAV:  13    -0.167371669949E+03   -0.13687E-02   -0.11183E-03 24680   0.128E-01    0.508E-02
DAV:  14    -0.167371859003E+03   -0.18905E-03   -0.13714E-04 26784   0.576E-02    0.239E-02
DAV:  15    -0.167371924879E+03   -0.65876E-04   -0.68354E-05 22576   0.363E-02    0.151E-02
DAV:  16    -0.167371933537E+03   -0.86576E-05   -0.75210E-06 18296   0.138E-02
   1 F= -.16737193E+03 E0= -.16737193E+03  d E =0.000000E+00  mag=    -0.0011
