 running on    8 total cores
 distrk:  each k-point on    8 cores,    1 groups
 distr:  one band on    1 cores,    8 groups
 using from now: INCAR     
 vasp.6.1.2 22Jul20 (build Mar 20 2021 11:25:07) complex                        
  
 POSCAR found type information on POSCAR LiP 
 POSCAR found :  2 types and      16 ions
 scaLAPACK will be used
 -----------------------------------------------------------------------------
|                                                                             |
|           W    W    AA    RRRRR   N    N  II  N    N   GGGG   !!!           |
|           W    W   A  A   R    R  NN   N  II  NN   N  G    G  !!!           |
|           W    W  A    A  R    R  N N  N  II  N N  N  G       !!!           |
|           W WW W  AAAAAA  RRRRR   N  N N  II  N  N N  G  GGG   !            |
|           WW  WW  A    A  R   R   N   NN  II  N   NN  G    G                |
|           W    W  A    A  R    R  N    N  II  N    N   GGGG   !!!           |
|                                                                             |
|     The value NCORE = 6 specified in the INCAR file was overwritten,        |
|     because it was not compatible with the 8 processes available:           |
|     NCORE = 1                                                               |
|     was used instead, please check that this makes sense for your           |
|     machine.                                                                |
|                                                                             |
 -----------------------------------------------------------------------------

 -----------------------------------------------------------------------------
|                                                                             |
|           W    W    AA    RRRRR   N    N  II  N    N   GGGG   !!!           |
|           W    W   A  A   R    R  NN   N  II  NN   N  G    G  !!!           |
|           W    W  A    A  R    R  N N  N  II  N N  N  G       !!!           |
|           W WW W  AAAAAA  RRRRR   N  N N  II  N  N N  G  GGG   !            |
|           WW  WW  A    A  R   R   N   NN  II  N   NN  G    G                |
|           W    W  A    A  R    R  N    N  II  N    N   GGGG   !!!           |
|                                                                             |
|     For optimal performance we recommend to set                             |
|       NCORE = 4 - approx SQRT(number of cores).                             |
|     NCORE specifies how many cores store one orbital (NPAR=cpu/NCORE).      |
|     This setting can greatly improve the performance of VASP for DFT.       |
|     The default, NCORE=1 might be grossly inefficient on modern             |
|     multi-core architectures or massively parallel machines. Do your        |
|     own testing!!!!                                                         |
|     Unfortunately you need to use the default for GW and RPA                |
|     calculations (for HF NCORE is supported but not extensively tested      |
|     yet).                                                                   |
|                                                                             |
 -----------------------------------------------------------------------------

 LDA part: xc-table for Pade appr. of Perdew
 generate k-points for:    6    6    4
 POSCAR, INCAR and KPOINTS ok, starting setup
 FFT: planning ...
 WAVECAR not read
 entering main loop
       N       E                     dE             d eps       ncg     rms          rms(c)
DAV:   1     0.394850020266E+03    0.39485E+03   -0.25657E+04 14600   0.131E+03
DAV:   2    -0.387310046771E+01   -0.39872E+03   -0.36447E+03 16272   0.315E+02
DAV:   3    -0.557908287607E+02   -0.51918E+02   -0.51236E+02 20912   0.884E+01
DAV:   4    -0.632629918080E+02   -0.74722E+01   -0.73941E+01 26016   0.326E+01
DAV:   5    -0.639744366524E+02   -0.71144E+00   -0.71116E+00 20272   0.735E+00    0.210E+01
DAV:   6    -0.652914511870E+02   -0.13170E+01   -0.27685E+00 19488   0.647E+00    0.112E+01
DAV:   7    -0.665688754179E+02   -0.12774E+01   -0.71820E-01 17744   0.408E+00    0.590E+00
DAV:   8    -0.668031727882E+02   -0.23430E+00   -0.60931E-01 18976   0.286E+00    0.126E+00
DAV:   9    -0.668337739259E+02   -0.30601E-01   -0.80674E-02 21848   0.110E+00    0.500E-01
DAV:  10    -0.668375629624E+02   -0.37890E-02   -0.65661E-03 18736   0.371E-01    0.213E-01
DAV:  11    -0.668390288238E+02   -0.14659E-02   -0.18811E-03 18208   0.202E-01    0.991E-02
DAV:  12    -0.668393107966E+02   -0.28197E-03   -0.59191E-04 18456   0.997E-02    0.413E-02
DAV:  13    -0.668393562981E+02   -0.45502E-04   -0.92268E-05 17088   0.493E-02    0.207E-02
DAV:  14    -0.668393701646E+02   -0.13867E-04   -0.29321E-05 14888   0.274E-02    0.617E-03
DAV:  15    -0.668393717271E+02   -0.15625E-05   -0.40433E-06 10848   0.121E-02
   1 F= -.66839372E+02 E0= -.66839372E+02  d E =0.000000E+00  mag=    -0.0003
