       N       E                     dE             d eps       ncg     rms          rms(c)
DAV:   1     0.160634783904E+03    0.16063E+03   -0.11742E+04  3456   0.120E+03
DAV:   2     0.192577666697E+01   -0.15871E+03   -0.14962E+03  3736   0.304E+02
DAV:   3    -0.240230745749E+02   -0.25949E+02   -0.25710E+02  6288   0.708E+01
DAV:   4    -0.263980366569E+02   -0.23750E+01   -0.23580E+01  4912   0.295E+01
DAV:   5    -0.265620928966E+02   -0.16406E+00   -0.16404E+00  5528   0.631E+00    0.150E+01
RMM:   6    -0.270795312203E+02   -0.51744E+00   -0.15804E+00  4181   0.620E+00    0.763E+00
RMM:   7    -0.277563984017E+02   -0.67687E+00   -0.47662E-01  4640   0.414E+00    0.299E+00
RMM:   8    -0.278181613877E+02   -0.61763E-01   -0.40999E-01  5360   0.291E+00    0.124E+00
RMM:   9    -0.278274054334E+02   -0.92440E-02   -0.97672E-02  5609   0.172E+00    0.551E-01
RMM:  10    -0.278359492497E+02   -0.85438E-02   -0.42898E-02  5935   0.999E-01    0.272E-01
RMM:  11    -0.278379658872E+02   -0.20166E-02   -0.14840E-02  6010   0.571E-01    0.205E-01
RMM:  12    -0.278386804775E+02   -0.71459E-03   -0.52403E-03  5855   0.425E-01    0.515E-02
RMM:  13    -0.278392019060E+02   -0.52143E-03   -0.29648E-03  6070   0.259E-01    0.171E-02
RMM:  14    -0.278393779408E+02   -0.17603E-03   -0.14173E-03  5958   0.163E-01    0.208E-02
RMM:  15    -0.278394522530E+02   -0.74312E-04   -0.64173E-04  5248   0.106E-01    0.180E-02
RMM:  16    -0.278394894895E+02   -0.37237E-04   -0.33637E-04  5162   0.764E-02    0.248E-02
RMM:  17    -0.278395052411E+02   -0.15752E-04   -0.18737E-04  5017   0.620E-02    0.157E-02
RMM:  18    -0.278395162715E+02   -0.11030E-04   -0.10408E-04  4431   0.456E-02    0.139E-02
RMM:  19    -0.278395228690E+02   -0.65976E-05   -0.72864E-05  4198   0.389E-02
   1 F= -.27839523E+02 E0= -.27839523E+02  d E =0.000000E+00  mag=    -0.0000
