    6    6    1    2
  0.1385668E+02  0.5219431E-09  0.4832806E-09  0.4832806E-09  0.5000000E-15
  1.000000000000000E-004
  CAR 
 unknown system                          
     32    282     22
 
  0.0000000E+00  0.0000000E+00  0.0000000E+00  0.1785714E-02
    1      -20.081834    -20.081772   1.000000   1.000000
    2      -17.933951    -17.933826   1.000000   1.000000
    3      -14.262732    -14.262605   1.000000   1.000000
    4      -12.484262    -12.484257   1.000000   1.000000
    5      -11.698593    -11.698585   1.000000   1.000000
    6       -6.923179     -6.923124   1.000000   1.000000
    7       -5.907353     -5.907263   1.000000   1.000000
    8       -5.692927     -5.692908   1.000000   1.000000
    9       -2.956329     -2.956364   1.000000   1.000000
   10       -2.227037     -2.227033   1.000000   1.000000
   11       -1.192301     -1.192245   1.000000   1.000000
   12       -1.099177     -1.099110   1.000000   1.000000
   13       -0.161479     -0.161562   1.000000   1.000000
   14        0.309555      0.309495   1.000000   1.000000
   15        0.916129      0.916038   1.000000   1.000000
   16        1.645722      1.645568   1.000000   1.000000
   17        5.724626      5.724556   0.000003   0.000005
   18        6.790167      6.790009   0.000000   0.000000
   19        7.725080      7.724978   0.000000   0.000000
   20        9.307425      9.306915   0.000000   0.000000
   21        9.944459      9.944131   0.000000   0.000000
   22       10.871315     10.872615   0.000000   0.000000
 
  0.1428571E+00 -0.5882151E-17  0.1169045E-15  0.3571429E-02
    1      -20.063882    -20.063819   1.000000   1.000000
    2      -17.938830    -17.938706   1.000000   1.000000
    3      -14.260330    -14.260208   1.000000   1.000000
    4      -12.967257    -12.967245   1.000000   1.000000
    5      -11.132711    -11.132709   1.000000   1.000000
    6       -6.898668     -6.898611   1.000000   1.000000
    7       -5.875636     -5.875545   1.000000   1.000000
    8       -5.739870     -5.739841   1.000000   1.000000
    9       -2.928495     -2.928527   1.000000   1.000000
   10       -2.260874     -2.260875   1.000000   1.000000
   11       -1.495238     -1.495191   1.000000   1.000000
   12       -1.021303     -1.021256   1.000000   1.000000
   13       -0.088940     -0.089012   1.000000   1.000000
   14        0.245771      0.245712   1.000000   1.000000
   15        0.886162      0.886054   1.000000   1.000000
   16        1.623112      1.622979   1.000000   1.000000
   17        5.962538      5.962494  -0.000001  -0.000001
   18        6.862357      6.862219   0.000000   0.000000
   19        7.730077      7.729886   0.000000   0.000000
   20        9.366783      9.366472   0.000000   0.000000
   21        9.923245      9.922748   0.000000   0.000000
   22       10.627335     10.624891   0.000000   0.000000
 
  0.2857143E+00 -0.1122403E-16  0.1777575E-15  0.3571429E-02
    1      -20.022598    -20.022532   1.000000   1.000000
    2      -17.950334    -17.950211   1.000000   1.000000
    3      -14.242525    -14.242421   1.000000   1.000000
    4      -13.542370    -13.542343   1.000000   1.000000
    5      -10.359806    -10.359811   1.000000   1.000000
    6       -6.840103     -6.840040   1.000000   1.000000
    7       -5.877950     -5.877888   1.000000   1.000000
    8       -5.780728     -5.780636   1.000000   1.000000
    9       -2.871452     -2.871477   1.000000   1.000000
   10       -2.462678     -2.462720   1.000000   1.000000
   11       -1.890196     -1.890162   1.000000   1.000000
   12       -0.923854     -0.923817   1.000000   1.000000
   13        0.003677      0.003604   1.000000   1.000000
   14        0.147271      0.147216   1.000000   1.000000
   15        0.816440      0.816316   1.000000   1.000000
   16        1.520215      1.520116   1.000000   1.000000
   17        6.326379      6.326321   0.000000   0.000000
   18        7.146638      7.146534   0.000000   0.000000
   19        8.131560      8.131310   0.000000   0.000000
   20        9.060991      9.060912   0.000000   0.000000
   21        9.760953      9.760784   0.000000   0.000000
   22       10.591419     10.590077   0.000000   0.000000
 
  0.4285714E+00 -0.1544711E-16  0.2930029E-15  0.3571429E-02
    1      -19.988272    -19.988204   1.000000   1.000000
    2      -17.960230    -17.960107   1.000000   1.000000
    3      -14.182836    -14.182767   1.000000   1.000000
    4      -13.915432    -13.915373   1.000000   1.000000
    5       -9.841432     -9.841447   1.000000   1.000000
    6       -6.788792     -6.788723   1.000000   1.000000
    7       -5.977653     -5.977563   1.000000   1.000000
    8       -5.731484     -5.731381   1.000000   1.000000
    9       -2.903346     -2.903405   1.000000   1.000000
   10       -2.712859     -2.712910   1.000000   1.000000
   11       -2.002147     -2.002108   1.000000   1.000000
   12       -0.820945     -0.820909   1.000000   1.000000
   13       -0.066727     -0.066816   1.000000   1.000000
   14        0.116428      0.116371   1.000000   1.000000
   15        0.913742      0.913602   1.000000   1.000000
   16        1.301921      1.301865   1.000000   1.000000
   17        6.512520      6.512371   0.000000   0.000000
   18        7.629707      7.629654   0.000000   0.000000
   19        8.502445      8.502333   0.000000   0.000000
   20        9.047466      9.047291   0.000000   0.000000
   21        9.288608      9.288631   0.000000   0.000000
   22       10.468199     10.466668   0.000000   0.000000
 
 -0.7064220E-17  0.1250000E+00  0.5122234E-16  0.3571429E-02
    1      -20.016284    -20.016219   1.000000   1.000000
    2      -18.032481    -18.032360   1.000000   1.000000
    3      -14.371191    -14.371072   1.000000   1.000000
    4      -12.496872    -12.496862   1.000000   1.000000
    5      -11.459697    -11.459682   1.000000   1.000000
    6       -6.983228     -6.983171   1.000000   1.000000
    7       -5.952118     -5.952047   1.000000   1.000000
    8       -5.575917     -5.575873   1.000000   1.000000
    9       -2.995048     -2.995082   1.000000   1.000000
   10       -2.233786     -2.233785   1.000000   1.000000
   11       -1.258860     -1.258812   1.000000   1.000000
   12       -1.124953     -1.124894   1.000000   1.000000
   13       -0.113519     -0.113595   1.000000   1.000000
   14        0.214174      0.214109   1.000000   1.000000
   15        0.823416      0.823317   1.000000   1.000000
   16        1.643184      1.643031   1.000000   1.000000
   17        5.881146      5.881100  -0.000000  -0.000000
   18        6.962203      6.962050   0.000000   0.000000
   19        7.838112      7.838010   0.000000   0.000000
   20        9.285570      9.285017   0.000000   0.000000
   21        9.879007      9.878643   0.000000   0.000000
   22       10.939596     10.936982   0.000000   0.000000
 
  0.1428571E+00  0.1250000E+00  0.1195545E-15  0.3571429E-02
    1      -19.985434    -19.985368   1.000000   1.000000
    2      -18.045313    -18.045194   1.000000   1.000000
    3      -14.436867    -14.436765   1.000000   1.000000
    4      -12.935334    -12.935302   1.000000   1.000000
    5      -10.812971    -10.812968   1.000000   1.000000
    6       -6.991390     -6.991327   1.000000   1.000000
    7       -5.926285     -5.926215   1.000000   1.000000
    8       -5.594864     -5.594802   1.000000   1.000000
    9       -2.946138     -2.946167   1.000000   1.000000
   10       -2.327765     -2.327780   1.000000   1.000000
   11       -1.581847     -1.581808   1.000000   1.000000
   12       -1.069269     -1.069236   1.000000   1.000000
   13       -0.039922     -0.039989   1.000000   1.000000
   14        0.137032      0.136977   1.000000   1.000000
   15        0.742334      0.742216   1.000000   1.000000
   16        1.642278      1.642153   1.000000   1.000000
   17        6.097575      6.097539  -0.000000  -0.000001
   18        7.147987      7.147864   0.000000   0.000000
   19        8.017686      8.017482   0.000000   0.000000
   20        9.316117      9.315903   0.000000   0.000000
   21        9.771168      9.770722   0.000000   0.000000
   22       10.593428     10.591531   0.000000   0.000000
 
  0.2857143E+00  0.1250000E+00  0.2653334E-15  0.3571429E-02
    1      -19.943559    -19.943491   1.000000   1.000000
    2      -18.059409    -18.059290   1.000000   1.000000
    3      -14.454411    -14.454327   1.000000   1.000000
    4      -13.406988    -13.406942   1.000000   1.000000
    5      -10.073602    -10.073606   1.000000   1.000000
    6       -7.023478     -7.023407   1.000000   1.000000
    7       -5.917274     -5.917200   1.000000   1.000000
    8       -5.592060     -5.591969   1.000000   1.000000
    9       -2.913605     -2.913636   1.000000   1.000000
   10       -2.562979     -2.563028   1.000000   1.000000
   11       -1.908650     -1.908624   1.000000   1.000000
   12       -0.962782     -0.962757   1.000000   1.000000
   13       -0.000696     -0.000767   1.000000   1.000000
   14        0.096454      0.096406   1.000000   1.000000
   15        0.688467      0.688346   1.000000   1.000000
   16        1.559011      1.558910   1.000000   1.000000
   17        6.381248      6.381174   0.000000   0.000000
   18        7.526484      7.526395   0.000000   0.000000
   19        8.337766      8.337544   0.000000   0.000000
   20        9.125106      9.125033   0.000000   0.000000
   21        9.500661      9.500481   0.000000   0.000000
   22       10.604146     10.597020   0.000000   0.000000
 
  0.4285714E+00  0.1250000E+00  0.3250676E-15  0.3571429E-02
    1      -19.922841    -19.922771   1.000000   1.000000
    2      -18.063665    -18.063547   1.000000   1.000000
    3      -14.368716    -14.368640   1.000000   1.000000
    4      -13.728957    -13.728907   1.000000   1.000000
    5       -9.662222     -9.662233   1.000000   1.000000
    6       -7.055514     -7.055436   1.000000   1.000000
    7       -5.941794     -5.941707   1.000000   1.000000
    8       -5.569911     -5.569808   1.000000   1.000000
    9       -2.957846     -2.957909   1.000000   1.000000
   10       -2.722009     -2.722052   1.000000   1.000000
   11       -2.020364     -2.020337   1.000000   1.000000
   12       -0.852849     -0.852817   1.000000   1.000000
   13       -0.083713     -0.083797   1.000000   1.000000
   14        0.108009      0.107953   1.000000   1.000000
   15        0.878730      0.878605   1.000000   1.000000
   16        1.334861      1.334786   1.000000   1.000000
   17        6.582223      6.582074   0.000000   0.000000
   18        7.669460      7.669425   0.000000   0.000000
   19        8.501802      8.501631   0.000000   0.000000
   20        9.087922      9.087993   0.000000   0.000000
   21        9.479251      9.479104   0.000000   0.000000
   22       10.400796     10.399888   0.000000   0.000000
 
 -0.4285714E+00  0.1250000E+00 -0.2642563E-15  0.3571429E-02
    1      -19.940089    -19.940020   1.000000   1.000000
    2      -18.054082    -18.053964   1.000000   1.000000
    3      -14.201449    -14.201328   1.000000   1.000000
    4      -13.827159    -13.827155   1.000000   1.000000
    5       -9.822829     -9.822833   1.000000   1.000000
    6       -7.020416     -7.020345   1.000000   1.000000
    7       -5.953715     -5.953633   1.000000   1.000000
    8       -5.571842     -5.571744   1.000000   1.000000
    9       -2.889877     -2.889906   1.000000   1.000000
   10       -2.704789     -2.704854   1.000000   1.000000
   11       -2.015250     -2.015221   1.000000   1.000000
   12       -0.885146     -0.885112   1.000000   1.000000
   13       -0.040938     -0.041023   1.000000   1.000000
   14        0.135287      0.135239   1.000000   1.000000
   15        1.034980      1.034831   1.000000   1.000000
   16        1.256798      1.256734   1.000000   1.000000
   17        6.448889      6.448771   0.000000   0.000000
   18        7.525619      7.525550   0.000000   0.000000
   19        8.445051      8.444970   0.000000   0.000000
   20        8.972062      8.971888   0.000000   0.000000
   21        9.628862      9.628810   0.000000   0.000000
   22       10.651894     10.655515   0.000000   0.000000
 
 -0.2857143E+00  0.1250000E+00 -0.1090366E-15  0.3571429E-02
    1      -19.981099    -19.981032   1.000000   1.000000
    2      -18.038952    -18.038833   1.000000   1.000000
    3      -14.212231    -14.212094   1.000000   1.000000
    4      -13.462796    -13.462808   1.000000   1.000000
    5      -10.428625    -10.428615   1.000000   1.000000
    6       -6.981107     -6.981048   1.000000   1.000000
    7       -5.941037     -5.940966   1.000000   1.000000
    8       -5.587333     -5.587256   1.000000   1.000000
    9       -2.948105     -2.948135   1.000000   1.000000
   10       -2.365873     -2.365892   1.000000   1.000000
   11       -1.857351     -1.857325   1.000000   1.000000
   12       -1.003401     -1.003369   1.000000   1.000000
   13       -0.008730     -0.008803   1.000000   1.000000
   14        0.175768      0.175721   1.000000   1.000000
   15        0.963223      0.963104   1.000000   1.000000
   16        1.491353      1.491236   1.000000   1.000000
   17        6.257550      6.257514   0.000000   0.000000
   18        7.027651      7.027548   0.000000   0.000000
   19        8.129312      8.129065   0.000000   0.000000
   20        9.046977      9.046892   0.000000   0.000000
   21       10.070931     10.070667   0.000000   0.000000
   22       10.600121     10.599325   0.000000   0.000000
 
 -0.1428571E+00  0.1250000E+00 -0.2996897E-16  0.3571429E-02
    1      -20.014345    -20.014281   1.000000   1.000000
    2      -18.029731    -18.029611   1.000000   1.000000
    3      -14.292063    -14.291934   1.000000   1.000000
    4      -12.845860    -12.845866   1.000000   1.000000
    5      -11.158886    -11.158868   1.000000   1.000000
    6       -6.978652     -6.978596   1.000000   1.000000
    7       -5.947606     -5.947535   1.000000   1.000000
    8       -5.579617     -5.579567   1.000000   1.000000
    9       -3.000143     -3.000177   1.000000   1.000000
   10       -2.223930     -2.223924   1.000000   1.000000
   11       -1.430458     -1.430411   1.000000   1.000000
   12       -1.104834     -1.104797   1.000000   1.000000
   13       -0.071441     -0.071508   1.000000   1.000000
   14        0.218705      0.218644   1.000000   1.000000
   15        0.913409      0.913307   1.000000   1.000000
   16        1.610020      1.609871   1.000000   1.000000
   17        5.986782      5.986754   0.000000   0.000000
   18        6.908517      6.908381   0.000000   0.000000
   19        7.748880      7.748708   0.000000   0.000000
   20        9.372661      9.372322   0.000000   0.000000
   21        9.911992      9.911824   0.000000   0.000000
   22       10.879726     10.865307   0.000000   0.000000
 
 -0.1412844E-16  0.2500000E+00  0.1024447E-15  0.3571429E-02
    1      -19.825973    -19.825903   1.000000   1.000000
    2      -18.302417    -18.302308   1.000000   1.000000
    3      -14.577024    -14.576915   1.000000   1.000000
    4      -12.532846    -12.532833   1.000000   1.000000
    5      -10.897083    -10.897054   1.000000   1.000000
    6       -7.186119     -7.186054   1.000000   1.000000
    7       -5.925349     -5.925281   1.000000   1.000000
    8       -5.395968     -5.395904   1.000000   1.000000
    9       -3.074640     -3.074671   1.000000   1.000000
   10       -2.269892     -2.269896   1.000000   1.000000
   11       -1.387855     -1.387835   1.000000   1.000000
   12       -1.304806     -1.304775   1.000000   1.000000
   13       -0.094431     -0.094506   1.000000   1.000000
   14        0.108431      0.108385   1.000000   1.000000
   15        0.733095      0.732988   1.000000   1.000000
   16        1.629879      1.629729   1.000000   1.000000
   17        6.112508      6.112499   0.000000   0.000000
   18        7.412452      7.412311   0.000000   0.000000
   19        8.146496      8.146402   0.000000   0.000000
   20        9.351717      9.351314   0.000000   0.000000
   21        9.877034      9.875888   0.000000   0.000000
   22       10.695124     10.685852   0.000000   0.000000
 
  0.1428571E+00  0.2500000E+00  0.1549374E-15  0.3571429E-02
    1      -19.787861    -19.787790   1.000000   1.000000
    2      -18.324498    -18.324391   1.000000   1.000000
    3      -14.638240    -14.638144   1.000000   1.000000
    4      -12.862117    -12.862085   1.000000   1.000000
    5      -10.307390    -10.307373   1.000000   1.000000
    6       -7.289773     -7.289702   1.000000   1.000000
    7       -5.876702     -5.876628   1.000000   1.000000
    8       -5.397784     -5.397710   1.000000   1.000000
    9       -3.019253     -3.019282   1.000000   1.000000
   10       -2.424208     -2.424231   1.000000   1.000000
   11       -1.649730     -1.649708   1.000000   1.000000
   12       -1.268398     -1.268400   1.000000   1.000000
   13       -0.098570     -0.098636   1.000000   1.000000
   14        0.140372      0.140346   1.000000   1.000000
   15        0.664696      0.664570   1.000000   1.000000
   16        1.652352      1.652224   1.000000   1.000000
   17        6.228164      6.228139   0.000000   0.000000
   18        7.619033      7.618930   0.000000   0.000000
   19        8.502850      8.502658   0.000000   0.000000
   20        9.109179      9.109054   0.000000   0.000000
   21        9.880059      9.879609   0.000000   0.000000
   22       10.455668     10.452082   0.000000   0.000000
 
  0.2857143E+00  0.2500000E+00  0.2940799E-15  0.3571429E-02
    1      -19.754042    -19.753968   1.000000   1.000000
    2      -18.337943    -18.337838   1.000000   1.000000
    3      -14.619506    -14.619417   1.000000   1.000000
    4      -13.254228    -13.254192   1.000000   1.000000
    5       -9.631418     -9.631411   1.000000   1.000000
    6       -7.492416     -7.492336   1.000000   1.000000
    7       -5.818924     -5.818838   1.000000   1.000000
    8       -5.384549     -5.384463   1.000000   1.000000
    9       -3.024046     -3.024088   1.000000   1.000000
   10       -2.601184     -2.601213   1.000000   1.000000
   11       -1.930162     -1.930161   1.000000   1.000000
   12       -1.106896     -1.106890   1.000000   1.000000
   13       -0.072558     -0.072623   1.000000   1.000000
   14        0.114408      0.114373   1.000000   1.000000
   15        0.659328      0.659208   1.000000   1.000000
   16        1.601051      1.600940   1.000000   1.000000
   17        6.473717      6.473650   0.000000   0.000000
   18        7.839205      7.839128   0.000000   0.000000
   19        8.499741      8.499587   0.000000   0.000000
   20        9.022225      9.022161   0.000000   0.000000
   21        9.702415      9.702176   0.000000   0.000000
   22       10.742221     10.711282   0.000000   0.000000
 
  0.4285714E+00  0.2500000E+00  0.3293767E-15  0.3571429E-02
    1      -19.751749    -19.751674   1.000000   1.000000
    2      -18.331250    -18.331145   1.000000   1.000000
    3      -14.498864    -14.498765   1.000000   1.000000
    4      -13.530245    -13.530223   1.000000   1.000000
    5       -9.320952     -9.320948   1.000000   1.000000
    6       -7.618083     -7.618001   1.000000   1.000000
    7       -5.790997     -5.790904   1.000000   1.000000
    8       -5.370569     -5.370477   1.000000   1.000000
    9       -2.986695     -2.986741   1.000000   1.000000
   10       -2.749655     -2.749688   1.000000   1.000000
   11       -2.052677     -2.052684   1.000000   1.000000
   12       -1.012769     -1.012752   1.000000   1.000000
   13       -0.085148     -0.085223   1.000000   1.000000
   14        0.131561      0.131525   1.000000   1.000000
   15        0.905895      0.905777   1.000000   1.000000
   16        1.391746      1.391643   1.000000   1.000000
   17        6.645507      6.645393   0.000000   0.000000
   18        7.678679      7.678645   0.000000   0.000000
   19        8.423571      8.423445   0.000000   0.000000
   20        9.072258      9.072227   0.000000   0.000000
   21        9.908930      9.908792   0.000000   0.000000
   22       10.665334     10.664649   0.000000   0.000000
 
 -0.4285714E+00  0.2500000E+00 -0.1433424E-15  0.3571429E-02
    1      -19.782491    -19.782418   1.000000   1.000000
    2      -18.309887    -18.309781   1.000000   1.000000
    3      -14.363001    -14.362872   1.000000   1.000000
    4      -13.559847    -13.559858   1.000000   1.000000
    5       -9.640422     -9.640403   1.000000   1.000000
    6       -7.471789     -7.471724   1.000000   1.000000
    7       -5.806111     -5.806023   1.000000   1.000000
    8       -5.368901     -5.368810   1.000000   1.000000
    9       -2.975511     -2.975537   1.000000   1.000000
   10       -2.667675     -2.667716   1.000000   1.000000
   11       -2.019048     -2.019051   1.000000   1.000000
   12       -1.077698     -1.077680   1.000000   1.000000
   13       -0.059959     -0.060035   1.000000   1.000000
   14        0.190475      0.190447   1.000000   1.000000
   15        1.122024      1.121908   1.000000   1.000000
   16        1.294821      1.294703   1.000000   1.000000
   17        6.406923      6.406845   0.000000   0.000000
   18        7.630078      7.630018   0.000000   0.000000
   19        8.331463      8.331370   0.000000   0.000000
   20        9.111691      9.111511   0.000000   0.000000
   21        9.972576      9.972299   0.000000   0.000000
   22       10.862771     10.851208   0.000000   0.000000
 
 -0.2857143E+00  0.2500000E+00 -0.8238342E-16  0.3571429E-02
    1      -19.821552    -19.821481   1.000000   1.000000
    2      -18.291218    -18.291109   1.000000   1.000000
    3      -14.378222    -14.378089   1.000000   1.000000
    4      -13.215318    -13.215335   1.000000   1.000000
    5      -10.267965    -10.267934   1.000000   1.000000
    6       -7.287056     -7.287000   1.000000   1.000000
    7       -5.858559     -5.858482   1.000000   1.000000
    8       -5.377462     -5.377383   1.000000   1.000000
    9       -3.093584     -3.093621   1.000000   1.000000
   10       -2.319282     -2.319276   1.000000   1.000000
   11       -1.825115     -1.825117   1.000000   1.000000
   12       -1.179436     -1.179418   1.000000   1.000000
   13       -0.048672     -0.048751   1.000000   1.000000
   14        0.163811      0.163784   1.000000   1.000000
   15        0.995531      0.995421   1.000000   1.000000
   16        1.521956      1.521816   1.000000   1.000000
   17        6.260925      6.260897   0.000000   0.000000
   18        7.208600      7.208526   0.000000   0.000000
   19        8.393431      8.393204   0.000000   0.000000
   20        9.118508      9.118329   0.000000   0.000000
   21       10.094272     10.094931   0.000000   0.000000
   22       11.041679     10.876656   0.000000   0.000000
 
 -0.1428571E+00  0.2500000E+00  0.2385546E-16  0.3571429E-02
    1      -19.840390    -19.840322   1.000000   1.000000
    2      -18.288151    -18.288042   1.000000   1.000000
    3      -14.476739    -14.476618   1.000000   1.000000
    4      -12.707758    -12.707766   1.000000   1.000000
    5      -10.842654    -10.842616   1.000000   1.000000
    6       -7.190045     -7.189987   1.000000   1.000000
    7       -5.916493     -5.916423   1.000000   1.000000
    8       -5.386658     -5.386592   1.000000   1.000000
    9       -3.120503     -3.120539   1.000000   1.000000
   10       -2.214931     -2.214921   1.000000   1.000000
   11       -1.490399     -1.490379   1.000000   1.000000
   12       -1.230896     -1.230868   1.000000   1.000000
   13       -0.019462     -0.019529   1.000000   1.000000
   14        0.071570      0.071513   1.000000   1.000000
   15        0.822011      0.821909   1.000000   1.000000
   16        1.620546      1.620390   1.000000   1.000000
   17        6.160922      6.160920   0.000000   0.000000
   18        7.209078      7.208952   0.000000   0.000000
   19        8.073687      8.073554   0.000000   0.000000
   20        9.401566      9.401118   0.000000   0.000000
   21        9.904425      9.903036   0.000000   0.000000
   22       10.946514     10.915732   0.000000   0.000000
 
 -0.2051109E-16  0.3750000E+00  0.1728246E-15  0.3571429E-02
    1      -19.534062    -19.533983   1.000000   1.000000
    2      -18.673466    -18.673373   1.000000   1.000000
    3      -14.734239    -14.734136   1.000000   1.000000
    4      -12.570915    -12.570901   1.000000   1.000000
    5      -10.300299    -10.300260   1.000000   1.000000
    6       -7.483762     -7.483689   1.000000   1.000000
    7       -5.784415     -5.784332   1.000000   1.000000
    8       -5.315107     -5.315043   1.000000   1.000000
    9       -3.124377     -3.124407   1.000000   1.000000
   10       -2.326531     -2.326537   1.000000   1.000000
   11       -1.666859     -1.666876   1.000000   1.000000
   12       -1.412806     -1.412806   1.000000   1.000000
   13       -0.170191     -0.170261   1.000000   1.000000
   14        0.157329      0.157314   1.000000   1.000000
   15        0.706208      0.706089   1.000000   1.000000
   16        1.619624      1.619476   1.000000   1.000000
   17        6.243592      6.243596   0.000000   0.000000
   18        7.952500      7.952385   0.000000   0.000000
   19        8.570450      8.570367   0.000000   0.000000
   20        9.231460      9.231298   0.000000   0.000000
   21       10.055494     10.055310   0.000000   0.000000
   22       10.404051     10.401469   0.000000   0.000000
 
  0.1428571E+00  0.3750000E+00  0.2081214E-15  0.3571429E-02
    1      -19.498654    -19.498572   1.000000   1.000000
    2      -18.698541    -18.698451   1.000000   1.000000
    3      -14.750406    -14.750308   1.000000   1.000000
    4      -12.799260    -12.799239   1.000000   1.000000
    5       -9.848795     -9.848764   1.000000   1.000000
    6       -7.653139     -7.653060   1.000000   1.000000
    7       -5.722720     -5.722627   1.000000   1.000000
    8       -5.325183     -5.325120   1.000000   1.000000
    9       -3.106853     -3.106887   1.000000   1.000000
   10       -2.426923     -2.426929   1.000000   1.000000
   11       -1.791439     -1.791456   1.000000   1.000000
   12       -1.395013     -1.395031   1.000000   1.000000
   13       -0.157353     -0.157413   1.000000   1.000000
   14        0.160649      0.160634   1.000000   1.000000
   15        0.654939      0.654811   1.000000   1.000000
   16        1.662364      1.662230   1.000000   1.000000
   17        6.325487      6.325474   0.000000   0.000000
   18        8.118811      8.118726   0.000000   0.000000
   19        8.683268      8.683172   0.000000   0.000000
   20        9.031901      9.031739   0.000000   0.000000
   21        9.862621      9.862561   0.000000   0.000000
   22       10.708242     10.701388   0.000000   0.000000
 
  0.2857143E+00  0.3750000E+00  0.3472640E-15  0.3571429E-02
    1      -19.484571    -19.484487   1.000000   1.000000
    2      -18.699093    -18.699005   1.000000   1.000000
    3      -14.684258    -14.684157   1.000000   1.000000
    4      -13.129414    -13.129399   1.000000   1.000000
    5       -9.244792     -9.244767   1.000000   1.000000
    6       -7.981149     -7.981069   1.000000   1.000000
    7       -5.653125     -5.653021   1.000000   1.000000
    8       -5.299952     -5.299883   1.000000   1.000000
    9       -3.123264     -3.123306   1.000000   1.000000
   10       -2.554727     -2.554723   1.000000   1.000000
   11       -1.949096     -1.949129   1.000000   1.000000
   12       -1.288019     -1.288033   1.000000   1.000000
   13       -0.122011     -0.122071   1.000000   1.000000
   14        0.140191      0.140168   1.000000   1.000000
   15        0.707728      0.707605   1.000000   1.000000
   16        1.640072      1.639949   1.000000   1.000000
   17        6.519093      6.519049   0.000000   0.000000
   18        8.010495      8.010441   0.000000   0.000000
   19        8.493715      8.493597   0.000000   0.000000
   20        9.021661      9.021547   0.000000   0.000000
   21        9.986965      9.986905   0.000000   0.000000
   22       10.935553     10.935543   0.000000   0.000000
 
  0.4285714E+00  0.3750000E+00  0.4935831E-15  0.3571429E-02
    1      -19.503503    -19.503420   1.000000   1.000000
    2      -18.674044    -18.673954   1.000000   1.000000
    3      -14.559417    -14.559301   1.000000   1.000000
    4      -13.366499    -13.366501   1.000000   1.000000
    5       -8.947601     -8.947576   1.000000   1.000000
    6       -8.185649     -8.185574   1.000000   1.000000
    7       -5.615395     -5.615289   1.000000   1.000000
    8       -5.256158     -5.256077   1.000000   1.000000
    9       -3.016331     -3.016358   1.000000   1.000000
   10       -2.794838     -2.794860   1.000000   1.000000
   11       -1.991625     -1.991661   1.000000   1.000000
   12       -1.299092     -1.299104   1.000000   1.000000
   13       -0.091341     -0.091398   1.000000   1.000000
   14        0.201785      0.201770   1.000000   1.000000
   15        0.965967      0.965842   1.000000   1.000000
   16        1.467944      1.467824   1.000000   1.000000
   17        6.634189      6.634121   0.000000   0.000000
   18        7.750213      7.750186   0.000000   0.000000
   19        8.374838      8.374712   0.000000   0.000000
   20        9.180555      9.180455   0.000000   0.000000
   21       10.073170     10.072957   0.000000   0.000000
   22       10.847244     10.870330   0.000000   0.000000
 
 -0.4285714E+00  0.3750000E+00 -0.1430688E-15  0.3571429E-02
    1      -19.538620    -19.538539   1.000000   1.000000
    2      -18.644728    -18.644636   1.000000   1.000000
    3      -14.487900    -14.487769   1.000000   1.000000
    4      -13.355746    -13.355765   1.000000   1.000000