       N       E                     dE             d eps       ncg     rms          rms(c)
DAV:   1     0.185627884557E+03    0.18563E+03   -0.16349E+04 24816   0.130E+03
DAV:   2    -0.367460274418E+02   -0.22237E+03   -0.21479E+03 34436   0.296E+02
DAV:   3    -0.489115351983E+02   -0.12166E+02   -0.12098E+02 31518   0.756E+01
DAV:   4    -0.490744365574E+02   -0.16290E+00   -0.16264E+00 31006   0.963E+00
DAV:   5    -0.490780355041E+02   -0.35989E-02   -0.35974E-02 31174   0.137E+00    0.255E+01
RMM:   6    -0.432233418346E+02    0.58547E+01   -0.19994E+01 25070   0.251E+01    0.108E+01
RMM:   7    -0.435038106176E+02   -0.28047E+00   -0.44349E+00 28683   0.130E+01    0.472E+00
RMM:   8    -0.435022943157E+02    0.15163E-02   -0.47877E-01 29147   0.481E+00    0.278E+00
RMM:   9    -0.434996501524E+02    0.26442E-02   -0.11794E-01 29276   0.252E+00    0.747E-01
RMM:  10    -0.435017278742E+02   -0.20777E-02   -0.31926E-02 32049   0.109E+00    0.259E-01
RMM:  11    -0.435024139540E+02   -0.68608E-03   -0.12798E-02 30552   0.679E-01    0.211E-01
RMM:  12    -0.435024127350E+02    0.12189E-05   -0.16624E-03 31514   0.287E-01    0.112E-01
RMM:  13    -0.435023709727E+02    0.41762E-04   -0.90035E-04 30283   0.205E-01    0.298E-02
RMM:  14    -0.435023803793E+02   -0.94066E-05   -0.12380E-04 31711   0.824E-02    0.224E-02
RMM:  15    -0.435023745353E+02    0.58439E-05   -0.31684E-05 23962   0.376E-02
   1 F= -.43502375E+02 E0= -.43502375E+02  d E =0.000000E+00  mag=    -0.0000
