 running on   12 total cores
 distrk:  each k-point on   12 cores,    1 groups
 distr:  one band on    6 cores,    2 groups
 using from now: INCAR     
 vasp.6.1.2 22Jul20 (build Mar 20 2021 11:25:07) complex                        
  
 POSCAR found type information on POSCAR LiP O 
 POSCAR found :  3 types and      26 ions
 scaLAPACK will be used
 LDA part: xc-table for Pade appr. of Perdew
 generate k-points for:    6    5    4
 POSCAR, INCAR and KPOINTS ok, starting setup
 FFT: planning ...
 WAVECAR not read
 entering main loop
       N       E                     dE             d eps       ncg     rms          rms(c)
DAV:   1     0.110146953593E+04    0.11015E+04   -0.60935E+04 21336   0.150E+03
DAV:   2    -0.561605104999E+02   -0.11576E+04   -0.10871E+04 25808   0.384E+02
DAV:   3    -0.171815873228E+03   -0.11566E+03   -0.11484E+03 27544   0.125E+02
DAV:   4    -0.181244388525E+03   -0.94285E+01   -0.93865E+01 38800   0.297E+01
DAV:   5    -0.183016249794E+03   -0.17719E+01   -0.17712E+01 31872   0.742E+00    0.460E+01
DAV:   6    -0.163768806907E+03    0.19247E+02   -0.91981E+01 26698   0.320E+01    0.230E+01
DAV:   7    -0.165695826148E+03   -0.19270E+01   -0.74529E+00 27744   0.948E+00    0.803E+00
DAV:   8    -0.165992666280E+03   -0.29684E+00   -0.76789E-01 27906   0.348E+00    0.412E+00
DAV:   9    -0.166125586351E+03   -0.13292E+00   -0.13957E-01 29424   0.161E+00    0.171E+00
DAV:  10    -0.166159965455E+03   -0.34379E-01   -0.57060E-02 26176   0.115E+00    0.469E-01
DAV:  11    -0.166170701356E+03   -0.10736E-01   -0.11577E-02 26984   0.435E-01    0.272E-01
DAV:  12    -0.166173929974E+03   -0.32286E-02   -0.25324E-03 28656   0.215E-01    0.141E-01
DAV:  13    -0.166175690634E+03   -0.17607E-02   -0.13132E-03 24520   0.134E-01    0.512E-02
DAV:  14    -0.166175938783E+03   -0.24815E-03   -0.17697E-04 26360   0.641E-02    0.230E-02
DAV:  15    -0.166176008751E+03   -0.69968E-04   -0.77766E-05 22112   0.374E-02    0.148E-02
DAV:  16    -0.166176016805E+03   -0.80538E-05   -0.91805E-06 18240   0.158E-02
   1 F= -.16617602E+03 E0= -.16617602E+03  d E =0.000000E+00  mag=    -0.0008
