 vasp.5.4.4.18Apr17-6-g9f103f2a35 (build Aug 12 2020 11:57:02) complex          
  
 executed on             LinuxIFC date 2021.01.31  03:45:37
 running on   96 total cores
 distrk:  each k-point on   96 cores,    1 groups
 distr:  one band on NCORES_PER_BAND=   6 cores,   16 groups


--------------------------------------------------------------------------------------------------------


 INCAR:
 POTCAR:    PAW_PBE Li_sv 10Sep2004               
 POTCAR:    PAW_PBE P 06Sep2000                   
 POTCAR:    PAW_PBE N 08Apr2002                   
 POTCAR:    PAW_PBE Li_sv 10Sep2004               
   VRHFIN =Li: 1s2s2p                                                           
   LEXCH  = PE                                                                  
   EATOM  =   202.7858 eV,   14.9043 Ry                                         
                                                                                
   TITEL  = PAW_PBE Li_sv 10Sep2004                                             
   LULTRA =        F    use ultrasoft PP ?                                      
   IUNSCR =        0    unscreen: 0-lin 1-nonlin 2-no                           
   RPACOR =    0.000    partial core radius                                     
   POMASS =    7.010; ZVAL   =    3.000    mass and valenz                      
   RCORE  =    1.700    outmost cutoff radius                                   
   RWIGS  =    2.050; RWIGS  =    1.085    wigner-seitz radius (au A)           
   ENMAX  =  499.034; ENMIN  =  374.276 eV                                      
   ICORE  =        2    local potential                                         
   LCOR   =        T    correct aug charges                                     
   LPAW   =        T    paw PP                                                  
   EAUG   =  628.945                                                            
   RMAX   =    1.732    core radius for proj-oper                               
   RAUG   =    1.300    factor for augmentation sphere                          
   RDEP   =    1.728    radius for radial grids                                 
   RDEPT  =    1.329    core radius for aug-charge                              
                                                                                
   Atomic configuration                                                         
    4 entries                                                                   
     n  l   j            E        occ.                                          
     1  0  0.50       -51.8549   2.0000                                         
     2  0  0.50        -2.8742   1.0000                                         
     2  1  0.50        -1.3606   0.0000                                         
     3  2  1.50        -1.3606   0.0000                                         
   Description                                                                  
     l       E           TYP  RCUT    TYP  RCUT                                 
     0    -51.8548813     23  1.400                                             
     0     -2.8742052     23  1.700                                             
     1     -1.3605826     23  1.400                                             
     2     -1.3605826     23  1.400                                             
  local pseudopotential read in
  atomic valenz-charges read in
  non local Contribution for L=           0  read in
    real space projection operators read in
  non local Contribution for L=           0  read in
    real space projection operators read in
  non local Contribution for L=           1  read in
    real space projection operators read in
    PAW grid and wavefunctions read in
 
   number of l-projection  operators is LMAX  =           3
   number of lm-projection operators is LMMAX =           5
 
 POTCAR:    PAW_PBE P 06Sep2000                   
   VRHFIN =P : s2p3                                                             
   LEXCH  = PE                                                                  
   EATOM  =   176.0430 eV,   12.9388 Ry                                         
                                                                                
   TITEL  = PAW_PBE P 06Sep2000                                                 
   LULTRA =        F    use ultrasoft PP ?                                      
   IUNSCR =        1    unscreen: 0-lin 1-nonlin 2-no                           
   RPACOR =    1.500    partial core radius                                     
   POMASS =   30.974; ZVAL   =    5.000    mass and valenz                      
   RCORE  =    1.900    outmost cutoff radius                                   
   RWIGS  =    2.330; RWIGS  =    1.233    wigner-seitz radius (au A)           
   ENMAX  =  255.040; ENMIN  =  191.280 eV                                      
   ICORE  =        2    local potential                                         
   LCOR   =        T    correct aug charges                                     
   LPAW   =        T    paw PP                                                  
   EAUG   =  342.924                                                            
   DEXC   =    0.000                                                            
   RMAX   =    1.935    core radius for proj-oper                               
   RAUG   =    1.300    factor for augmentation sphere                          
   RDEP   =    1.931    radius for radial grids                                 
   RDEPT  =    1.794    core radius for aug-charge                              
                                                                                
   Atomic configuration                                                         
    6 entries                                                                   
     n  l   j            E        occ.                                          
     1  0  0.50     -2084.0982   2.0000                                         
     2  0  0.50      -173.9859   2.0000                                         
     2  1  1.50      -124.4865   6.0000                                         
     3  0  0.50       -13.9692   2.0000                                         
     3  1  0.50        -5.5067   3.0000                                         
     3  2  1.50        -5.4423   0.0000                                         
   Description                                                                  
     l       E           TYP  RCUT    TYP  RCUT                                 
     0    -13.9691527     23  1.900                                             
     0    -11.7794650     23  1.900                                             
     1     -5.5066937     23  1.900                                             
     1     -0.2556953     23  1.900                                             
     2     -5.4423304     23  1.900                                             
  local pseudopotential read in
  partial core-charges read in
  partial kinetic energy density read in
  atomic valenz-charges read in
  non local Contribution for L=           0  read in
    real space projection operators read in
  non local Contribution for L=           0  read in
    real space projection operators read in
  non local Contribution for L=           1  read in
    real space projection operators read in
  non local Contribution for L=           1  read in
    real space projection operators read in
    PAW grid and wavefunctions read in
 
   number of l-projection  operators is LMAX  =           4
   number of lm-projection operators is LMMAX =           8
 
 POTCAR:    PAW_PBE N 08Apr2002                   
   VRHFIN =N: s2p3                                                              
   LEXCH  = PE                                                                  
   EATOM  =   264.5486 eV,   19.4438 Ry                                         
                                                                                
   TITEL  = PAW_PBE N 08Apr2002                                                 
   LULTRA =        F    use ultrasoft PP ?                                      
   IUNSCR =        1    unscreen: 0-lin 1-nonlin 2-no                           
   RPACOR =    1.200    partial core radius                                     
   POMASS =   14.001; ZVAL   =    5.000    mass and valenz                      
   RCORE  =    1.500    outmost cutoff radius                                   
   RWIGS  =    1.400; RWIGS  =    0.741    wigner-seitz radius (au A)           
   ENMAX  =  400.000; ENMIN  =  300.000 eV                                      
   ICORE  =        2    local potential                                         
   LCOR   =        T    correct aug charges                                     
   LPAW   =        T    paw PP                                                  
   EAUG   =  627.112                                                            
   DEXC   =    0.000                                                            
   RMAX   =    1.529    core radius for proj-oper                               
   RAUG   =    1.300    factor for augmentation sphere                          
   RDEP   =    1.514    radius for radial grids                                 
   RDEPT  =    1.338    core radius for aug-charge                              
                                                                                
   Atomic configuration                                                         
    4 entries                                                                   
     n  l   j            E        occ.                                          
     1  0  0.50      -384.7179   2.0000                                         
     2  0  0.50       -18.5828   2.0000                                         
     2  1  0.50        -7.0898   3.0000                                         
     3  2  1.50        -6.8029   0.0000                                         
   Description                                                                  
     l       E           TYP  RCUT    TYP  RCUT                                 
     0    -18.5828119     23  1.200                                             
     0    -13.5018863     23  1.200                                             
     1     -7.0897853     23  1.500                                             
     1      9.5240782     23  1.500                                             
     2     -6.8029130      7  1.500                                             
  local pseudopotential read in
  partial core-charges read in
  partial kinetic energy density read in
  atomic valenz-charges read in
  non local Contribution for L=           0  read in
    real space projection operators read in
  non local Contribution for L=           0  read in
    real space projection operators read in
  non local Contribution for L=           1  read in
    real space projection operators read in
  non local Contribution for L=           1  read in
    real space projection operators read in
    PAW grid and wavefunctions read in
 
   number of l-projection  operators is LMAX  =           4
   number of lm-projection operators is LMMAX =           8
 
 Optimization of the real space projectors (new method)

 maximal supplied QI-value         = 22.11
 optimisation between [QCUT,QGAM] = [ 11.50, 23.22] = [ 37.02,150.92] Ry 
 Optimized for a Real-space Cutoff    1.08 Angstroem

   l    n(q)    QCUT    max X(q) W(low)/X(q) W(high)/X(q)  e(spline) 
   0      7    11.497    10.506    0.36E-04    0.62E-04    0.14E-07
   0      7    11.497     8.367    0.65E-04    0.14E-03    0.28E-07
   1      7    11.497     8.983    0.21E-03    0.43E-03    0.90E-07
 Optimization of the real space projectors (new method)

 maximal supplied QI-value         = 19.84
 optimisation between [QCUT,QGAM] = [ 11.51, 23.22] = [ 37.09,150.92] Ry 
 Optimized for a Real-space Cutoff    1.21 Angstroem

   l    n(q)    QCUT    max X(q) W(low)/X(q) W(high)/X(q)  e(spline) 
   0      8    11.508   160.924    0.96E-04    0.17E-03    0.52E-07
   0      8    11.508   130.086    0.95E-04    0.17E-03    0.51E-07
   1      8    11.508    74.434    0.16E-03    0.74E-04    0.91E-07
   1      8    11.508    49.120    0.16E-03    0.71E-04    0.89E-07
 Optimization of the real space projectors (new method)

 maximal supplied QI-value         = 25.13
 optimisation between [QCUT,QGAM] = [ 11.56, 23.12] = [ 37.43,149.72] Ry 
 Optimized for a Real-space Cutoff    1.40 Angstroem

   l    n(q)    QCUT    max X(q) W(low)/X(q) W(high)/X(q)  e(spline) 
   0     10    11.561    79.467    0.46E-04    0.78E-04    0.61E-06
   0     10    11.561    66.151    0.45E-04    0.77E-04    0.61E-06
   1      9    11.561    18.886    0.22E-03    0.13E-03    0.12E-05
   1      9    11.561    13.488    0.23E-03    0.13E-03    0.12E-05
  PAW_PBE Li_sv 10Sep2004               :
 energy of atom  1       EATOM= -202.7858
 kinetic energy error for atom=    0.0130 (will be added to EATOM!!)
  PAW_PBE P 06Sep2000                   :
 energy of atom  2       EATOM= -176.0430
 kinetic energy error for atom=    0.0011 (will be added to EATOM!!)
  PAW_PBE N 08Apr2002                   :
 energy of atom  3       EATOM= -264.5486
 kinetic energy error for atom=    0.0125 (will be added to EATOM!!)
 
 
 POSCAR: Li56 P8 N32                             
  positions in direct lattice
  No initial velocities read in
 exchange correlation table for  LEXCH =        8
   RHO(1)=    0.500       N(1)  =     2000
   RHO(2)=  100.500       N(2)  =     4000
 


--------------------------------------------------------------------------------------------------------


 ion  position               nearest neighbor table
   1  0.000  0.500  0.500-  80 1.99  83 1.99  85 1.99  86 1.99  46 2.22  56 2.22   8 2.35   9 2.35
                            62 2.35  63 2.35
   2  0.500  0.000  0.000-  76 1.99  77 1.99  93 1.99  94 1.99  45 2.22  55 2.22  10 2.35  11 2.35
                            59 2.35  64 2.35
   3  0.000  0.000  0.500-  78 1.99  79 1.99  91 1.99  92 1.99  52 2.22  54 2.22   7 2.35  12 2.35
                            62 2.35  63 2.35
   4  0.000  0.500  0.000-  74 1.99  75 1.99  95 1.99  96 1.99  51 2.22  53 2.22   8 2.35   9 2.35
                            60 2.35  61 2.35
   5  0.500  0.000  0.500-  81 1.99  82 1.99  84 1.99  87 1.99  49 2.22  50 2.22   7 2.35  12 2.35
                            59 2.35  64 2.35
   6  0.500  0.500  0.000-  73 1.99  88 1.99  89 1.99  90 1.99  47 2.22  48 2.22  10 2.35  11 2.35
                            60 2.35  61 2.35
   7  0.250  0.000  0.500-  79 2.12  91 2.12  87 2.12  81 2.12  27 2.33  29 2.33  35 2.33  39 2.33
                             3 2.35   5 2.35
   8  0.000  0.500  0.750-  75 2.12  83 2.12  86 2.12  96 2.12  23 2.33  31 2.33  34 2.33  44 2.33
                             1 2.35   4 2.35
   9  0.000  0.500  0.250-  74 2.12  80 2.12  85 2.12  95 2.12  22 2.33  28 2.33  33 2.33  43 2.33
                             1 2.35   4 2.35
  10  0.500  0.250  0.000-  73 2.12  89 2.12  77 2.12  76 2.12  21 2.33  24 2.33  25 2.33  37 2.33
                             2 2.35   6 2.35
  11  0.500  0.750  0.000-  88 2.12  90 2.12  93 2.12  94 2.12  36 2.33  38 2.33  41 2.33  42 2.33
                             2 2.35   6 2.35
  12  0.750  0.000  0.500-  78 2.12  92 2.12  84 2.12  82 2.12  26 2.33  30 2.33  32 2.33  40 2.33
                             3 2.35   5 2.35
  13  0.225  0.225  0.225-  72 1.99  28 2.37  29 2.37  21 2.37  25 2.38  39 2.38  22 2.38
  14  0.275  0.725  0.275-  71 1.99  27 2.37  41 2.37  22 2.37  36 2.38  29 2.38  33 2.38
  15  0.275  0.275  0.725-  70 1.99  24 2.37  39 2.37  23 2.37  35 2.38  21 2.38  34 2.38
  16  0.725  0.275  0.275-  69 1.99  26 2.37  43 2.37  25 2.37  37 2.38  28 2.38  30 2.38
  17  0.775  0.775  0.225-  68 1.99  33 2.37  38 2.37  30 2.37  41 2.38  43 2.38  40 2.38
  18  0.225  0.775  0.775-  67 1.99  35 2.37  36 2.37  31 2.37  23 2.38  42 2.38  27 2.38
  19  0.775  0.225  0.775-  66 1.99  34 2.37  37 2.37  32 2.37  24 2.38  44 2.38  26 2.38
  20  0.725  0.725  0.725-  65 1.99  42 2.37  44 2.37  40 2.37  32 2.38  38 2.38  31 2.38
  21  0.253  0.237  0.975-  75 2.00  73 2.05  76 2.16  45 2.24  10 2.33  13 2.37  15 2.38  51 2.41
                            61 2.48
  22  0.247  0.475  0.263-  73 2.00  74 2.05  80 2.16  46 2.24   9 2.33  14 2.37  13 2.38  48 2.41
                            61 2.48
  23  0.247  0.525  0.737-  88 2.00  75 2.05  83 2.16  46 2.24   8 2.33  15 2.37  18 2.38  47 2.41
                            61 2.48
  24  0.525  0.263  0.753-  84 2.00  76 2.05  89 2.16  47 2.24  10 2.33  15 2.37  19 2.38  49 2.41
                            59 2.48
  25  0.475  0.263  0.247-  81 2.00  77 2.05  73 2.16  48 2.24  10 2.33  16 2.37  13 2.38  49 2.41
                            64 2.48
  26  0.737  0.247  0.525-  86 2.00  78 2.05  84 2.16  49 2.24  12 2.33  16 2.37  19 2.38  56 2.41
                            62 2.48
  27  0.263  0.753  0.525-  83 2.00  79 2.05  87 2.16  50 2.24   7 2.33  14 2.37  18 2.38  46 2.41
                            63 2.48
  28  0.975  0.253  0.237-  78 2.00  80 2.05  95 2.16  51 2.24   9 2.33  13 2.37  16 2.38  52 2.41
                            62 2.48
  29  0.237  0.975  0.253-  93 2.00  81 2.05  79 2.16  52 2.24   7 2.33  13 2.37  14 2.38  45 2.41
                            64 2.48
  30  0.763  0.025  0.253-  77 2.00  82 2.05  78 2.16  52 2.24  12 2.33  17 2.37  16 2.38  55 2.41
                            64 2.48
  31  0.975  0.747  0.763-  92 2.00  83 2.05  96 2.16  53 2.24   8 2.33  18 2.37  20 2.38  54 2.41
                            63 2.48
  32  0.763  0.975  0.747-  94 2.00  84 2.05  92 2.16  54 2.24  12 2.33  19 2.37  20 2.38  55 2.41
                            59 2.48
  33  0.025  0.747  0.237-  79 2.00  85 2.05  74 2.16  53 2.24   9 2.33  17 2.37  14 2.38  52 2.41
                            63 2.48
  34  0.025  0.253  0.763-  91 2.00  86 2.05  75 2.16  51 2.24   8 2.33  19 2.37  15 2.38  54 2.41
                            62 2.48
  35  0.237  0.025  0.747-  76 2.00  87 2.05  91 2.16  54 2.24   7 2.33  18 2.37  15 2.38  45 2.41
                            59 2.48
  36  0.253  0.763  0.025-  74 2.00  88 2.05  93 2.16  45 2.24  11 2.33  18 2.37  14 2.38  53 2.41
                            61 2.48
  37  0.747  0.237  0.025-  95 2.00  89 2.05  77 2.16  55 2.24  10 2.33  19 2.37  16 2.38  51 2.41
                            60 2.48
  38  0.747  0.763  0.975-  96 2.00  90 2.05  94 2.16  55 2.24  11 2.33  17 2.37  20 2.38  53 2.41
                            60 2.48
  39  0.263  0.247  0.475-  80 2.00  91 2.05  81 2.16  49 2.24   7 2.33  15 2.37  13 2.38  46 2.41
                            62 2.48
  40  0.737  0.753  0.475-  85 2.00  92 2.05  82 2.16  50 2.24  12 2.33  20 2.37  17 2.38  56 2.41
                            63 2.48
  41  0.525  0.737  0.247-  82 2.00  93 2.05  90 2.16  48 2.24  11 2.33  14 2.37  17 2.38  50 2.41
                            64 2.48
  42  0.475  0.737  0.753-  87 2.00  94 2.05  88 2.16  47 2.24  11 2.33  20 2.37  18 2.38  50 2.41
                            59 2.48
  43  0.753  0.525  0.263-  90 2.00  95 2.05  85 2.16  56 2.24   9 2.33  16 2.37  17 2.38  48 2.41
                            60 2.48
  44  0.753  0.475  0.737-  89 2.00  96 2.05  86 2.16  56 2.24   8 2.33  20 2.37  19 2.38  47 2.41
                            60 2.48
  45  0.264  0.000  0.000-  67 2.05  72 2.05  76 2.18  93 2.18   2 2.22  21 2.24  36 2.24  35 2.41
                            29 2.41  58 2.49
  46  0.236  0.500  0.500-  70 2.05  71 2.05  80 2.18  83 2.18   1 2.22  22 2.24  23 2.24  27 2.41
                            39 2.41  57 2.49
  47  0.500  0.500  0.764-  65 2.05  70 2.05  88 2.18  89 2.18   6 2.22  24 2.24  42 2.24  23 2.41
                            44 2.41  57 2.49
  48  0.500  0.500  0.236-  69 2.05  71 2.05  73 2.18  90 2.18   6 2.22  25 2.24  41 2.24  22 2.41
                            43 2.41  57 2.49
  49  0.500  0.236  0.500-  69 2.05  70 2.05  81 2.18  84 2.18   5 2.22  26 2.24  39 2.24  24 2.41
                            25 2.41  57 2.49
  50  0.500  0.764  0.500-  65 2.05  71 2.05  82 2.18  87 2.18   5 2.22  27 2.24  40 2.24  41 2.41
                            42 2.41  57 2.49
  51  0.000  0.264  0.000-  66 2.05  72 2.05  75 2.18  95 2.18   4 2.22  28 2.24  34 2.24  21 2.41
                            37 2.41  58 2.49
  52  0.000  0.000  0.264-  68 2.05  72 2.05  78 2.18  79 2.18   3 2.22  29 2.24  30 2.24  28 2.41
                            33 2.41  58 2.49
  53  0.000  0.736  0.000-  67 2.05  68 2.05  74 2.18  96 2.18   4 2.22  31 2.24  33 2.24  36 2.41
                            38 2.41  58 2.49
  54  0.000  0.000  0.736-  66 2.05  67 2.05  91 2.18  92 2.18   3 2.22  32 2.24  35 2.24  34 2.41
                            31 2.41  58 2.49
  55  0.736  0.000  0.000-  66 2.05  68 2.05  77 2.18  94 2.18   2 2.22  37 2.24  38 2.24  30 2.41
                            32 2.41  58 2.49
  56  0.764  0.500  0.500-  65 2.05  69 2.05  85 2.18  86 2.18   1 2.22  43 2.24  44 2.24  26 2.41
                            40 2.41  57 2.49
  57  0.500  0.500  0.500-  65 1.68  69 1.68  70 1.68  71 1.68  50 2.49  56 2.49  46 2.49  47 2.49
                            48 2.49  49 2.49
  58  0.000  0.000  0.000-  66 1.68  67 1.68  68 1.68  72 1.68  54 2.49  55 2.49  45 2.49  51 2.49
                            52 2.49  53 2.49
  59  0.500  0.000  0.750-  76 1.70  84 1.70  87 1.70  94 1.70   2 2.35   5 2.35  24 2.48  32 2.48
                            35 2.48  42 2.48
  60  0.750  0.500  0.000-  89 1.70  90 1.70  95 1.70  96 1.70   4 2.35   6 2.35  37 2.48  38 2.48
                            43 2.48  44 2.48
  61  0.250  0.500  0.000-  73 1.70  74 1.70  75 1.70  88 1.70   4 2.35   6 2.35  21 2.48  22 2.48
                            23 2.48  36 2.48
  62  0.000  0.250  0.500-  78 1.70  80 1.70  86 1.70  91 1.70   1 2.35   3 2.35  26 2.48  28 2.48
                            34 2.48  39 2.48
  63  0.000  0.750  0.500-  79 1.70  83 1.70  85 1.70  92 1.70   1 2.35   3 2.35  27 2.48  31 2.48
                            33 2.48  40 2.48
  64  0.500  0.000  0.250-  77 1.70  81 1.70  82 1.70  93 1.70   2 2.35   5 2.35  25 2.48  29 2.48
                            30 2.48  41 2.48
  65  0.603  0.603  0.603-  57 1.68  20 1.99  50 2.05  56 2.05  47 2.05
  66  0.897  0.103  0.897-  58 1.68  19 1.99  54 2.05  55 2.05  51 2.05
  67  0.103  0.897  0.897-  58 1.68  18 1.99  53 2.05  54 2.05  45 2.05
  68  0.897  0.897  0.103-  58 1.68  17 1.99  53 2.05  55 2.05  52 2.05
  69  0.603  0.397  0.397-  57 1.68  16 1.99  49 2.05  56 2.05  48 2.05
  70  0.397  0.397  0.603-  57 1.68  15 1.99  47 2.05  49 2.05  46 2.05
  71  0.397  0.603  0.397-  57 1.68  14 1.99  48 2.05  50 2.05  46 2.05
  72  0.103  0.103  0.103-  58 1.68  13 1.99  51 2.05  52 2.05  45 2.05
  73  0.351  0.387  0.099-  61 1.70   6 1.99  22 2.00  21 2.05  10 2.12  25 2.16  48 2.18
  74  0.149  0.599  0.113-  61 1.70   4 1.99  36 2.00  22 2.05   9 2.12  33 2.16  53 2.18
  75  0.149  0.401  0.887-  61 1.70   4 1.99  21 2.00  23 2.05   8 2.12  34 2.16  51 2.18
  76  0.401  0.113  0.851-  59 1.70   2 1.99  35 2.00  24 2.05  10 2.12  21 2.16  45 2.18
  77  0.599  0.113  0.149-  64 1.70   2 1.99  30 2.00  25 2.05  10 2.12  37 2.16  55 2.18
  78  0.887  0.149  0.401-  62 1.70   3 1.99  28 2.00  26 2.05  12 2.12  30 2.16  52 2.18
  79  0.113  0.851  0.401-  63 1.70   3 1.99  33 2.00  27 2.05   7 2.12  29 2.16  52 2.18
  80  0.099  0.351  0.387-  62 1.70   1 1.99  39 2.00  28 2.05   9 2.12  22 2.16  46 2.18
  81  0.387  0.099  0.351-  64 1.70   5 1.99  25 2.00  29 2.05   7 2.12  39 2.16  49 2.18
  82  0.613  0.901  0.351-  64 1.70   5 1.99  41 2.00  30 2.05  12 2.12  40 2.16  50 2.18
  83  0.099  0.649  0.613-  63 1.70   1 1.99  27 2.00  31 2.05   8 2.12  23 2.16  46 2.18
  84  0.613  0.099  0.649-  59 1.70   5 1.99  24 2.00  32 2.05  12 2.12  26 2.16  49 2.18
  85  0.901  0.649  0.387-  63 1.70   1 1.99  40 2.00  33 2.05   9 2.12  43 2.16  56 2.18
  86  0.901  0.351  0.613-  62 1.70   1 1.99  26 2.00  34 2.05   8 2.12  44 2.16  56 2.18
  87  0.387  0.901  0.649-  59 1.70   5 1.99  42 2.00  35 2.05   7 2.12  27 2.16  50 2.18
  88  0.351  0.613  0.901-  61 1.70   6 1.99  23 2.00  36 2.05  11 2.12  42 2.16  47 2.18
  89  0.649  0.387  0.901-  60 1.70   6 1.99  44 2.00  37 2.05  10 2.12  24 2.16  47 2.18
  90  0.649  0.613  0.099-  60 1.70   6 1.99  43 2.00  38 2.05  11 2.12  41 2.16  48 2.18
  91  0.113  0.149  0.599-  62 1.70   3 1.99  34 2.00  39 2.05   7 2.12  35 2.16  54 2.18
  92  0.887  0.851  0.599-  63 1.70   3 1.99  31 2.00  40 2.05  12 2.12  32 2.16  54 2.18
  93  0.401  0.887  0.149-  64 1.70   2 1.99  29 2.00  41 2.05  11 2.12  36 2.16  45 2.18
  94  0.599  0.887  0.851-  59 1.70   2 1.99  32 2.00  42 2.05  11 2.12  38 2.16  55 2.18
  95  0.851  0.401  0.113-  60 1.70   4 1.99  37 2.00  43 2.05   9 2.12  28 2.16  51 2.18
  96  0.851  0.599  0.887-  60 1.70   4 1.99  38 2.00  44 2.05   8 2.12  31 2.16  53 2.18
 
  LATTYP: Found a simple cubic cell.
 ALAT       =     9.4023780000
  
  Lattice vectors:
  
 A1 = (   9.4023780000,   0.0000000000,   0.0000000000)
 A2 = (   0.0000000000,   9.4023780000,   0.0000000000)
 A3 = (   0.0000000000,   0.0000000000,   9.4023780000)


Analysis of symmetry for initial positions (statically):
=====================================================================
 Subroutine PRICEL returns:
 Original cell was already a primitive cell.
 

 Routine SETGRP: Setting up the symmetry group for a 
 simple cubic supercell.


 Subroutine GETGRP returns: Found 24 space group operations
 (whereof 12 operations were pure point group operations)
 out of a pool of 48 trial point group operations.


The static configuration has the point symmetry T   .
 The point group associated with its full space group is T_d .


Analysis of symmetry for dynamics (positions and initial velocities):
=====================================================================
 Subroutine PRICEL returns:
 Original cell was already a primitive cell.
 

 Routine SETGRP: Setting up the symmetry group for a 
 simple cubic supercell.


 Subroutine GETGRP returns: Found 24 space group operations
 (whereof 12 operations were pure point group operations)
 out of a pool of 48 trial point group operations.


The dynamic configuration has the point symmetry T   .
 The point group associated with its full space group is T_d .


Analysis of structural, dynamic, and magnetic symmetry:
=====================================================================
 Subroutine PRICEL returns:
 Original cell was already a primitive cell.
 

 Routine SETGRP: Setting up the symmetry group for a 
 simple cubic supercell.


 Subroutine GETGRP returns: Found 24 space group operations
 (whereof 12 operations were pure point group operations)
 out of a pool of 48 trial point group operations.


The magnetic configuration has the point symmetry T   .
 The point group associated with its full space group is T_d .


 Subroutine INISYM returns: Found 24 space group operations
 (whereof 12 operations are pure point group operations),
 and found     1 'primitive' translations

 
 
 KPOINTS: Fully automatic kpoint scheme           

Automatic generation of k-mesh.
 generate k-points for:    3    3    3
Space group operators:
 irot       det(A)        alpha          n_x          n_y          n_z        tau_x        tau_y        tau_z
    1     1.000000     0.000000     1.000000     0.000000     0.000000     0.000000     0.000000     0.000000
    2     1.000000   120.000000    -0.577350    -0.577350    -0.577350     0.000000     0.000000     0.000000
    3     1.000000   120.000000     0.577350     0.577350     0.577350     0.000000     0.000000     0.000000
    4     1.000000   180.000000     0.000000     0.000000     1.000000     0.000000     0.000000     0.000000
    5     1.000000   120.000000    -0.577350     0.577350     0.577350     0.000000     0.000000     0.000000
    6     1.000000   120.000000    -0.577350     0.577350    -0.577350     0.000000     0.000000     0.000000
    7     1.000000   120.000000     0.577350    -0.577350     0.577350     0.000000     0.000000     0.000000
    8     1.000000   120.000000    -0.577350    -0.577350     0.577350     0.000000     0.000000     0.000000
    9     1.000000   180.000000     1.000000     0.000000     0.000000     0.000000     0.000000     0.000000
   10     1.000000   120.000000     0.577350    -0.577350    -0.577350     0.000000     0.000000     0.000000
   11     1.000000   180.000000     0.000000     1.000000     0.000000     0.000000     0.000000     0.000000
   12     1.000000   120.000000     0.577350     0.577350    -0.577350     0.000000     0.000000     0.000000
   13    -1.000000    90.000000     0.000000     0.000000    -1.000000     0.500000     0.500000     0.500000
   14    -1.000000   180.000000     0.000000     0.707107     0.707107     0.500000     0.500000     0.500000
   15    -1.000000    90.000000     0.000000     1.000000     0.000000     0.500000     0.500000     0.500000
   16    -1.000000    90.000000     0.000000     0.000000     1.000000     0.500000     0.500000     0.500000
   17    -1.000000    90.000000    -1.000000     0.000000     0.000000     0.500000     0.500000     0.500000
   18    -1.000000   180.000000     0.707107     0.000000     0.707107     0.500000     0.500000     0.500000
   19    -1.000000    90.000000     0.000000    -1.000000     0.000000     0.500000     0.500000     0.500000
   20    -1.000000   180.000000     0.707107     0.707107     0.000000     0.500000     0.500000     0.500000
   21    -1.000000    90.000000     1.000000     0.000000     0.000000     0.500000     0.500000     0.500000
   22    -1.000000   180.000000     0.000000    -0.707107     0.707107     0.500000     0.500000     0.500000
   23    -1.000000   180.000000     0.707107    -0.707107     0.000000     0.500000     0.500000     0.500000
   24    -1.000000   180.000000     0.707107     0.000000    -0.707107     0.500000     0.500000     0.500000
 
 Subroutine IBZKPT returns following result:
 ===========================================
 
 Found      4 irreducible k-points:
 
 Following reciprocal coordinates:
            Coordinates               Weight
  0.000000  0.000000  0.000000      1.000000
  0.333333  0.000000  0.000000      6.000000
  0.333333  0.333333  0.000000     12.000000
  0.333333  0.333333  0.333333      8.000000
 
 Following cartesian coordinates:
            Coordinates               Weight
  0.000000  0.000000  0.000000      1.000000
  0.035452  0.000000  0.000000      6.000000
  0.035452  0.035452  0.000000     12.000000
  0.035452  0.035452  0.035452      8.000000
 
 TETIRR: Found     11 inequivalent tetrahedra from      162


--------------------------------------------------------------------------------------------------------




 Dimension of arrays:
   k-points           NKPTS =      4   k-points in BZ     NKDIM =      4   number of bands    NBANDS=    240
   number of dos      NEDOS =    301   number of ions     NIONS =     96
   non local maximal  LDIM  =      4   non local SUM 2l+1 LMDIM =      8
   total plane-waves  NPLWV = 343000
   max r-space proj   IRMAX =   4830   max aug-charges    IRDMAX=  12756
   dimension x,y,z NGX =    70 NGY =   70 NGZ =   70
   dimension x,y,z NGXF=   140 NGYF=  140 NGZF=  140
   support grid    NGXF=   140 NGYF=  140 NGZF=  140
   ions per type =              56   8  32
   NGX,Y,Z   is equivalent  to a cutoff of  12.38, 12.38, 12.38 a.u.
   NGXF,Y,Z  is equivalent  to a cutoff of  24.75, 24.75, 24.75 a.u.

 SYSTEM =  unknown system                          
 POSCAR =  Li56 P8 N32                             

 Startparameter for this run:
   NWRITE =      2    write-flag & timer
   PREC   = accura    normal or accurate (medium, high low for compatibility)
   ISTART =      0    job   : 0-new  1-cont  2-samecut
   ICHARG =      2    charge: 1-file 2-atom 10-const
   ISPIN  =      2    spin polarized calculation?
   LNONCOLLINEAR =      F non collinear calculations
   LSORBIT =      F    spin-orbit coupling
   INIWAV =      1    electr: 0-lowe 1-rand  2-diag
   LASPH  =      T    aspherical Exc in radial PAW
   METAGGA=      F    non-selfconsistent MetaGGA calc.

 Electronic Relaxation 1
   ENCUT  =  520.0 eV  38.22 Ry    6.18 a.u.  17.48 17.48 17.48*2*pi/ulx,y,z
   ENINI  =  520.0     initial cutoff
   ENAUG  =  628.9 eV  augmentation charge cutoff
   NELM   =    100;   NELMIN=  2; NELMDL= -5     # of ELM steps 
   EDIFF  = 0.1E-04   stopping-criterion for ELM
   LREAL  =      T    real-space projection
   NLSPLINE    = F    spline interpolate recip. space projectors
   LCOMPAT=      F    compatible to vasp.4.4
   GGA_COMPAT  = T    GGA compatible to vasp.4.4-vasp.4.6
   LMAXPAW     = -100 max onsite density
   LMAXMIX     =    2 max onsite mixed and CHGCAR
   VOSKOWN=      0    Vosko Wilk Nusair interpolation
   ROPT   =   -0.00025  -0.00025  -0.00025
 Ionic relaxation
   EDIFFG = 0.1E-03   stopping-criterion for IOM
   NSW    =     99    number of steps for IOM
   NBLOCK =      1;   KBLOCK =     99    inner block; outer block 
   IBRION =      2    ionic relax: 0-MD 1-quasi-New 2-CG
   NFREE  =      1    steps in history (QN), initial steepest desc. (CG)
   ISIF   =      3    stress and relaxation
   IWAVPR =     11    prediction:  0-non 1-charg 2-wave 3-comb
   ISYM   =      2    0-nonsym 1-usesym 2-fastsym
   LCORR  =      T    Harris-Foulkes like correction to forces

   POTIM  = 0.5000    time-step for ionic-motion
   TEIN   =    0.0    initial temperature
   TEBEG  =    0.0;   TEEND  =   0.0 temperature during run
   SMASS  =  -3.00    Nose mass-parameter (am)
   estimated Nose-frequenzy (Omega)   =  0.10E-29 period in steps =****** mass=  -0.202E-26a.u.
   SCALEE = 1.0000    scale energy and forces
   NPACO  =    256;   APACO  = 16.0  distance and # of slots for P.C.
   PSTRESS=    0.0 pullay stress

  Mass of Ions in am
   POMASS =   7.01 30.97 14.00
  Ionic Valenz
   ZVAL   =   3.00  5.00  5.00
  Atomic Wigner-Seitz radii
   RWIGS  =  -1.00 -1.00 -1.00
  virtual crystal weights 
   VCA    =   1.00  1.00  1.00
   NELECT =     368.0000    total number of electrons
   NUPDOWN=      -1.0000    fix difference up-down

 DOS related values:
   EMIN   =  10.00;   EMAX   =-10.00  energy-range for DOS
   EFERMI =   0.00
   ISMEAR =    -5;   SIGMA  =   0.05  broadening in eV -4-tet -1-fermi 0-gaus

 Electronic relaxation 2 (details)
   IALGO  =     68    algorithm
   LDIAG  =      T    sub-space diagonalisation (order eigenvalues)
   LSUBROT=      F    optimize rotation matrix (better conditioning)
   TURBO    =      0    0=normal 1=particle mesh
   IRESTART =      0    0=no restart 2=restart with 2 vectors
   NREBOOT  =      0    no. of reboots
   NMIN     =      0    reboot dimension
   EREF     =   0.00    reference energy to select bands
   IMIX   =      4    mixing-type and parameters
     AMIX     =   0.40;   BMIX     =  1.00
     AMIX_MAG =   1.60;   BMIX_MAG =  1.00
     AMIN     =   0.10
     WC   =   100.;   INIMIX=   1;  MIXPRE=   1;  MAXMIX= -45

 Intra band minimization:
   WEIMIN = 0.0010     energy-eigenvalue tresh-hold
   EBREAK =  0.10E-07  absolut break condition
   DEPER  =   0.30     relativ break condition  

   TIME   =   0.40     timestep for ELM

  volume/ion in A,a.u.               =       8.66        58.43
  Fermi-wavevector in a.u.,A,eV,Ry     =   1.247727  2.357863 21.181874  1.556824
  Thomas-Fermi vector in A             =   2.381846
 
 Write flags
   LWAVE        =      F    write WAVECAR
   LDOWNSAMPLE  =      F    k-point downsampling of WAVECAR
   LCHARG       =      F    write CHGCAR
   LVTOT        =      F    write LOCPOT, total local potential
   LVHAR        =      F    write LOCPOT, Hartree potential only
   LELF         =      F    write electronic localiz. function (ELF)
   LORBIT       =     11    0 simple, 1 ext, 2 COOP (PROOUT), +10 PAW based schemes


 Dipole corrections
   LMONO  =      F    monopole corrections only (constant potential shift)
   LDIPOL =      F    correct potential (dipole corrections)
   IDIPOL =      0    1-x, 2-y, 3-z, 4-all directions 
   EPSILON=  1.0000000 bulk dielectric constant

 Exchange correlation treatment:
   GGA     =    --    GGA type
   LEXCH   =     8    internal setting for exchange type
   VOSKOWN=      0    Vosko Wilk Nusair interpolation
   LHFCALC =     F    Hartree Fock is set to
   LHFONE  =     F    Hartree Fock one center treatment
   AEXX    =    0.0000 exact exchange contribution

 Linear response parameters
   LEPSILON=     F    determine dielectric tensor
   LRPA    =     F    only Hartree local field effects (RPA)
   LNABLA  =     F    use nabla operator in PAW spheres
   LVEL    =     F    velocity operator in full k-point grid
   LINTERFAST=   F  fast interpolation
   KINTER  =     0    interpolate to denser k-point grid
   CSHIFT  =0.1000    complex shift for real part using Kramers Kronig
   OMEGAMAX=  -1.0    maximum frequency
   DEG_THRESHOLD= 0.2000000E-02 threshold for treating states as degnerate
   RTIME   =   -0.100 relaxation time in fs
  (WPLASMAI=    0.000 imaginary part of plasma frequency in eV, 0.658/RTIME)
   DFIELD  = 0.0000000 0.0000000 0.0000000 field for delta impulse in time
 
 Orbital magnetization related:
   ORBITALMAG=     F  switch on orbital magnetization
   LCHIMAG   =     F  perturbation theory with respect to B field
   DQ        =  0.001000  dq finite difference perturbation B field
   LLRAUG    =     F  two centre corrections for induced B field



--------------------------------------------------------------------------------------------------------


 conjugate gradient relaxation of ions
 charge density and potential will be updated during run
 spin polarized calculation
 RMM-DIIS sequential band-by-band and
  variant of blocked Davidson during initial phase
 perform sub-space diagonalisation
    before iterative eigenvector-optimisation
 modified Broyden-mixing scheme, WC =      100.0
 initial mixing is a Kerker type mixing with AMIX =  0.4000 and BMIX =      1.0000
 Hartree-type preconditioning will be used
 using additional bands           56
 real space projection scheme for non local part
 use partial core corrections
 calculate Harris-corrections to forces 
   (improved forces if not selfconsistent)
 use gradient corrections 
 use of overlap-Matrix (Vanderbilt PP)
 Fermi weights with tetrahedron method with Bloechl corrections


--------------------------------------------------------------------------------------------------------


  energy-cutoff  :      520.00
  volume of cell :      831.21
      direct lattice vectors                 reciprocal lattice vectors
     9.402378000  0.000000000  0.000000000     0.106356073  0.000000000  0.000000000
     0.000000000  9.402378000  0.000000000     0.000000000  0.106356073  0.000000000
     0.000000000  0.000000000  9.402378000     0.000000000  0.000000000  0.106356073

  length of vectors
     9.402378000  9.402378000  9.402378000     0.106356073  0.106356073  0.106356073


 
 k-points in units of 2pi/SCALE and weight: Fully automatic kpoint scheme           
   0.00000000  0.00000000  0.00000000       0.037
   0.03545202  0.00000000  0.00000000       0.222
   0.03545202  0.03545202  0.00000000       0.444
   0.03545202  0.03545202  0.03545202       0.296
 
 k-points in reciprocal lattice and weights: Fully automatic kpoint scheme           
   0.00000000  0.00000000  0.00000000       0.037
   0.33333333  0.00000000  0.00000000       0.222
   0.33333333  0.33333333  0.00000000       0.444
   0.33333333  0.33333333  0.33333333       0.296
 
 position of ions in fractional coordinates (direct lattice) 
   0.00000000  0.50000000  0.50000000
   0.50000000  0.00000000  0.00000000
   0.00000000  0.00000000  0.50000000
   0.00000000  0.50000000  0.00000000
   0.50000000  0.00000000  0.50000000
   0.50000000  0.50000000  0.00000000
   0.25000000  0.00000000  0.50000000
   0.00000000  0.50000000  0.75000000
   0.00000000  0.50000000  0.25000000
   0.50000000  0.25000000  0.00000000
   0.50000000  0.75000000  0.00000000
   0.75000000  0.00000000  0.50000000
   0.22537400  0.22537400  0.22537400
   0.27462600  0.72537400  0.27462600
   0.27462600  0.27462600  0.72537400
   0.72537400  0.27462600  0.27462600
   0.77462600  0.77462600  0.22537400
   0.22537400  0.77462600  0.77462600
   0.77462600  0.22537400  0.77462600
   0.72537400  0.72537400  0.72537400
   0.25333600  0.23708300  0.97516400
   0.24666400  0.47516400  0.26291700
   0.24666400  0.52483600  0.73708300
   0.52483600  0.26291700  0.75333600
   0.47516400  0.26291700  0.24666400
   0.73708300  0.24666400  0.52483600
   0.26291700  0.75333600  0.52483600
   0.97516400  0.25333600  0.23708300
   0.23708300  0.97516400  0.25333600
   0.76291700  0.02483600  0.25333600
   0.97516400  0.74666400  0.76291700
   0.76291700  0.97516400  0.74666400
   0.02483600  0.74666400  0.23708300
   0.02483600  0.25333600  0.76291700
   0.23708300  0.02483600  0.74666400
   0.25333600  0.76291700  0.02483600
   0.74666400  0.23708300  0.02483600
   0.74666400  0.76291700  0.97516400
   0.26291700  0.24666400  0.47516400
   0.73708300  0.75333600  0.47516400
   0.52483600  0.73708300  0.24666400
   0.47516400  0.73708300  0.75333600
   0.75333600  0.52483600  0.26291700
   0.75333600  0.47516400  0.73708300
   0.26438700  0.00000000  0.00000000
   0.23561300  0.50000000  0.50000000
   0.50000000  0.50000000  0.76438700
   0.50000000  0.50000000  0.23561300
   0.50000000  0.23561300  0.50000000
   0.50000000  0.76438700  0.50000000
   0.00000000  0.26438700  0.00000000
   0.00000000  0.00000000  0.26438700
   0.00000000  0.73561300  0.00000000
   0.00000000  0.00000000  0.73561300
   0.73561300  0.00000000  0.00000000
   0.76438700  0.50000000  0.50000000
   0.50000000  0.50000000  0.50000000
   0.00000000  0.00000000  0.00000000
   0.50000000  0.00000000  0.75000000
   0.75000000  0.50000000  0.00000000
   0.25000000  0.50000000  0.00000000
   0.00000000  0.25000000  0.50000000
   0.00000000  0.75000000  0.50000000
   0.50000000  0.00000000  0.25000000
   0.60346100  0.60346100  0.60346100
   0.89653900  0.10346100  0.89653900
   0.10346100  0.89653900  0.89653900
   0.89653900  0.89653900  0.10346100
   0.60346100  0.39653900  0.39653900
   0.39653900  0.39653900  0.60346100
   0.39653900  0.60346100  0.39653900
   0.10346100  0.10346100  0.10346100
   0.35073100  0.38738500  0.09942100
   0.14926900  0.59942100  0.11261500
   0.14926900  0.40057900  0.88738500
   0.40057900  0.11261500  0.85073100
   0.59942100  0.11261500  0.14926900
   0.88738500  0.14926900  0.40057900
   0.11261500  0.85073100  0.40057900
   0.09942100  0.35073100  0.38738500
   0.38738500  0.09942100  0.35073100
   0.61261500  0.90057900  0.35073100
   0.09942100  0.64926900  0.61261500
   0.61261500  0.09942100  0.64926900
   0.90057900  0.64926900  0.38738500
   0.90057900  0.35073100  0.61261500
   0.38738500  0.90057900  0.64926900
   0.35073100  0.61261500  0.90057900
   0.64926900  0.38738500  0.90057900
   0.64926900  0.61261500  0.09942100
   0.11261500  0.14926900  0.59942100
   0.88738500  0.85073100  0.59942100
   0.40057900  0.88738500  0.14926900
   0.59942100  0.88738500  0.85073100
   0.85073100  0.40057900  0.11261500
   0.85073100  0.59942100  0.88738500
 
 position of ions in cartesian coordinates  (Angst):
   0.00000000  4.70118900  4.70118900
   4.70118900  0.00000000  0.00000000
   0.00000000  0.00000000  4.70118900
   0.00000000  4.70118900  0.00000000
   4.70118900  0.00000000  4.70118900
   4.70118900  4.70118900  0.00000000
   2.35059450  0.00000000  4.70118900
   0.00000000  4.70118900  7.05178350
   0.00000000  4.70118900  2.35059450
   4.70118900  2.35059450  0.00000000
   4.70118900  7.05178350  0.00000000
   7.05178350  0.00000000  4.70118900
   2.11905154  2.11905154  2.11905154
   2.58213746  6.82024054  2.58213746
   2.58213746  2.58213746  6.82024054
   6.82024054  2.58213746  2.58213746
   7.28332646  7.28332646  2.11905154
   2.11905154  7.28332646  7.28332646
   7.28332646  2.11905154  7.28332646
   6.82024054  6.82024054  6.82024054
   2.38196083  2.22914398  9.16886054
   2.31922817  4.46767154  2.47204502
   2.31922817  4.93470646  6.93033298
   4.93470646  2.47204502  7.08314983
   4.46767154  2.47204502  2.31922817
   6.93033298  2.31922817  4.93470646
   2.47204502  7.08314983  4.93470646
   9.16886054  2.38196083  2.22914398
   2.22914398  9.16886054  2.38196083
   7.17323402  0.23351746  2.38196083
   9.16886054  7.02041717  7.17323402
   7.17323402  9.16886054  7.02041717
   0.23351746  7.02041717  2.22914398
   0.23351746  2.38196083  7.17323402
   2.22914398  0.23351746  7.02041717
   2.38196083  7.17323402  0.23351746
   7.02041717  2.22914398  0.23351746
   7.02041717  7.17323402  9.16886054
   2.47204502  2.31922817  4.46767154
   6.93033298  7.08314983  4.46767154
   4.93470646  6.93033298  2.31922817
   4.46767154  6.93033298  7.08314983
   7.08314983  4.93470646  2.47204502
   7.08314983  4.46767154  6.93033298
   2.48586651  0.00000000  0.00000000
   2.21532249  4.70118900  4.70118900
   4.70118900  4.70118900  7.18705551
   4.70118900  4.70118900  2.21532249
   4.70118900  2.21532249  4.70118900
   4.70118900  7.18705551  4.70118900
   0.00000000  2.48586651  0.00000000
   0.00000000  0.00000000  2.48586651
   0.00000000  6.91651149  0.00000000
   0.00000000  0.00000000  6.91651149
   6.91651149  0.00000000  0.00000000
   7.18705551  4.70118900  4.70118900
   4.70118900  4.70118900  4.70118900
   0.00000000  0.00000000  0.00000000
   4.70118900  0.00000000  7.05178350
   7.05178350  4.70118900  0.00000000
   2.35059450  4.70118900  0.00000000
   0.00000000  2.35059450  4.70118900
   0.00000000  7.05178350  4.70118900
   4.70118900  0.00000000  2.35059450
   5.67396843  5.67396843  5.67396843
   8.42959857  0.97277943  8.42959857
   0.97277943  8.42959857  8.42959857
   8.42959857  8.42959857  0.97277943
   5.67396843  3.72840957  3.72840957
   3.72840957  3.72840957  5.67396843
   3.72840957  5.67396843  3.72840957
   0.97277943  0.97277943  0.97277943
   3.29770544  3.64234020  0.93479382
   1.40348356  5.63598282  1.05884880
   1.40348356  3.76639518  8.34352920
   3.76639518  1.05884880  7.99889444
   5.63598282  1.05884880  1.40348356
   8.34352920  1.40348356  3.76639518
   1.05884880  7.99889444  3.76639518
   0.93479382  3.29770544  3.64234020
   3.64234020  0.93479382  3.29770544
   5.76003780  8.46758418  3.29770544
   0.93479382  6.10467256  5.76003780
   5.76003780  0.93479382  6.10467256
   8.46758418  6.10467256  3.64234020
   8.46758418  3.29770544  5.76003780
   3.64234020  8.46758418  6.10467256
   3.29770544  5.76003780  8.46758418
   6.10467256  3.64234020  8.46758418
   6.10467256  5.76003780  0.93479382
   1.05884880  1.40348356  5.63598282
   8.34352920  7.99889444  5.63598282
   3.76639518  8.34352920  1.40348356
   5.63598282  8.34352920  7.99889444
   7.99889444  3.76639518  1.05884880
   7.99889444  5.63598282  8.34352920
 


--------------------------------------------------------------------------------------------------------


 k-point  1 :   0.0000 0.0000 0.0000  plane waves:   22335
 k-point  2 :   0.3333 0.0000 0.0000  plane waves:   22427
 k-point  3 :   0.3333 0.3333 0.0000  plane waves:   22429
 k-point  4 :   0.3333 0.3333 0.3333  plane waves:   22340

 maximum and minimum number of plane-waves per node :      3758     3696

 maximum number of plane-waves:     22429
 maximum index in each direction: 
   IXMAX=   17   IYMAX=   17   IZMAX=   17
   IXMIN=  -17   IYMIN=  -17   IZMIN=  -17


 real space projection operators:
  total allocation   :      15333.39 KBytes
  max/ min on nodes  :       2662.74       2393.84


 parallel 3D FFT for wavefunctions:
    minimum data exchange during FFTs selected (reduces bandwidth)
 parallel 3D FFT for charge:
    minimum data exchange during FFTs selected (reduces bandwidth)


 total amount of memory used by VASP MPI-rank0    59844. kBytes
=======================================================================

   base      :      30000. kBytes
   nonlr-proj:      11116. kBytes
   fftplans  :       3007. kBytes
   grid      :       8220. kBytes
   one-center:         98. kBytes
   wavefun   :       7403. kBytes
 
     INWAV:  cpu time    0.0000: real time    0.0001
 Broyden mixing: mesh for mixing (old mesh)
   NGX = 35   NGY = 35   NGZ = 35
  (NGX  =140   NGY  =140   NGZ  =140)
  gives a total of  42875 points

 initial charge density was supplied:
 charge density of overlapping atoms calculated
 number of electron     368.0000000 magnetization       0.0000000
 keeping initial charge density in first step


--------------------------------------------------------------------------------------------------------


 Maximum index for non-local projection operator          886
 Maximum index for augmentation-charges          641 (set IRDMAX)


--------------------------------------------------------------------------------------------------------


 First call to EWALD:  gamma=   0.189
 Maximum number of real-space cells 3x 3x 3
 Maximum number of reciprocal cells 3x 3x 3

    FEWALD:  cpu time    0.0117: real time    0.0148


--------------------------------------- Iteration      1(   1)  ---------------------------------------


    POTLOK:  cpu time    0.1405: real time    0.2284
    SETDIJ:  cpu time    0.2666: real time    0.3607
     EDDAV:  cpu time    5.6748: real time    6.0509
 BZINTS: Fermi energy: 21.862781;368.000000 electrons
         Band energy:***********;  BLOECHL correction: -0.013722
       DOS:  cpu time    0.0159: real time    0.0313
    --------------------------------------------
      LOOP:  cpu time    6.0978: real time    6.6714

 eigenvalue-minimisations  :  3840
 total energy-change (2. order) : 0.3507856E+04  (-0.1595990E+05)
 number of electron     368.0000000 magnetization       0.0000000
 augmentation part      368.0000000 magnetization       0.0000000

 Free energy of the ion-electron system (eV)
  ---------------------------------------------------
  alpha Z        PSCENC =       566.55367808
  Ewald energy   TEWEN  =    -13652.41879169
  -Hartree energ DENC   =     -3845.18971481
  -exchange      EXHF   =         0.00000000
  -V(xc)+E(xc)   XCENC  =      1380.58283772
  PAW double counting   =     12142.57869666   -12978.10326946
  entropy T*S    EENTRO =         0.00000000
  eigenvalues    EBANDS =     -1334.91658637
  atomic energy  EATOM  =     21228.76925246
  Solvation  Ediel_sol  =         0.00000000
  ---------------------------------------------------
  free energy    TOTEN  =      3507.85610259 eV

  energy without entropy =     3507.85610259  energy(sigma->0) =     3507.85610259


--------------------------------------------------------------------------------------------------------




--------------------------------------- Iteration      1(   2)  ---------------------------------------


     EDDAV:  cpu time    6.1033: real time    6.1337
 BZINTS: Fermi energy:  6.432472;368.000000 electrons
         Band energy:***********;  BLOECHL correction:  0.000000
       DOS:  cpu time    0.0014: real time    0.0014
    --------------------------------------------
      LOOP:  cpu time    6.1047: real time    6.1351

 eigenvalue-minimisations  :  4224
 total energy-change (2. order) :-0.3506876E+04  (-0.3241213E+04)
 number of electron     368.0000000 magnetization       0.0000000
 augmentation part      368.0000000 magnetization       0.0000000

 Free energy of the ion-electron system (eV)
  ---------------------------------------------------
  alpha Z        PSCENC =       566.55367808
  Ewald energy   TEWEN  =    -13652.41879169
  -Hartree energ DENC   =     -3845.18971481
  -exchange      EXHF   =         0.00000000
  -V(xc)+E(xc)   XCENC  =      1380.58283772
  PAW double counting   =     12142.57869666   -12978.10326946
  entropy T*S    EENTRO =         0.00000000
  eigenvalues    EBANDS =     -4841.79239122
  atomic energy  EATOM  =     21228.76925246
  Solvation  Ediel_sol  =         0.00000000
  ---------------------------------------------------
  free energy    TOTEN  =         0.98029775 eV

  energy without entropy =        0.98029775  energy(sigma->0) =        0.98029775


--------------------------------------------------------------------------------------------------------




--------------------------------------- Iteration      1(   3)  ---------------------------------------


     EDDAV:  cpu time   13.8289: real time   13.8712
 BZINTS: Fermi energy:  1.275070;368.000000 electrons
         Band energy:***********;  BLOECHL correction:  0.000000
       DOS:  cpu time    0.0014: real time    0.0014
    --------------------------------------------
      LOOP:  cpu time   13.8303: real time   13.8726

 eigenvalue-minimisations  :  5360
 total energy-change (2. order) :-0.4758006E+03  (-0.4707320E+03)
 number of electron     368.0000000 magnetization       0.0000000
 augmentation part      368.0000000 magnetization       0.0000000

 Free energy of the ion-electron system (eV)
  ---------------------------------------------------
  alpha Z        PSCENC =       566.55367808
  Ewald energy   TEWEN  =    -13652.41879169
  -Hartree energ DENC   =     -3845.18971481
  -exchange      EXHF   =         0.00000000
  -V(xc)+E(xc)   XCENC  =      1380.58283772
  PAW double counting   =     12142.57869666   -12978.10326946
  entropy T*S    EENTRO =         0.00000000
  eigenvalues    EBANDS =     -5317.59302222
  atomic energy  EATOM  =     21228.76925246
  Solvation  Ediel_sol  =         0.00000000
  ---------------------------------------------------
  free energy    TOTEN  =      -474.82033326 eV

  energy without entropy =     -474.82033326  energy(sigma->0) =     -474.82033326


--------------------------------------------------------------------------------------------------------




--------------------------------------- Iteration      1(   4)  ---------------------------------------


     EDDAV:  cpu time   25.2471: real time   25.3180
 BZINTS: Fermi energy:  1.163957;368.000000 electrons
         Band energy:***********;  BLOECHL correction:  0.000000
       DOS:  cpu time    0.0017: real time    0.0016
    --------------------------------------------
      LOOP:  cpu time   25.2487: real time   25.3196

 eigenvalue-minimisations  :  6960
 total energy-change (2. order) :-0.6813765E+02  (-0.6761570E+02)
 number of electron     368.0000000 magnetization       0.0000000
 augmentation part      368.0000000 magnetization       0.0000000

 Free energy of the ion-electron system (eV)
  ---------------------------------------------------
  alpha Z        PSCENC =       566.55367808
  Ewald energy   TEWEN  =    -13652.41879169
  -Hartree energ DENC   =     -3845.18971481
  -exchange      EXHF   =         0.00000000
  -V(xc)+E(xc)   XCENC  =      1380.58283772
  PAW double counting   =     12142.57869666   -12978.10326946
  entropy T*S    EENTRO =         0.00000000
  eigenvalues    EBANDS =     -5385.73066860
  atomic energy  EATOM  =     21228.76925246
  Solvation  Ediel_sol  =         0.00000000
  ---------------------------------------------------
  free energy    TOTEN  =      -542.95797964 eV

  energy without entropy =     -542.95797964  energy(sigma->0) =     -542.95797964


--------------------------------------------------------------------------------------------------------




--------------------------------------- Iteration      1(   5)  ---------------------------------------


     EDDAV:  cpu time   24.2273: real time   24.2925
 BZINTS: Fermi energy:  1.198560;368.000000 electrons
         Band energy:***********;  BLOECHL correction:  0.000000
       DOS:  cpu time    0.0015: real time    0.0015
    CHARGE:  cpu time    0.7934: real time    0.8113
    MIXING:  cpu time    0.0343: real time    0.0538
    --------------------------------------------
      LOOP:  cpu time   25.0566: real time   25.1591

 eigenvalue-minimisations  :  6176
 total energy-change (2. order) :-0.6674013E+01  (-0.6671018E+01)
 number of electron     367.9999849 magnetization       0.0000000
 augmentation part       61.8856295 magnetization      -0.0043794

 Broyden mixing:
  rms(total) = 0.56934E+01    rms(broyden)= 0.56922E+01
  rms(prec ) = 0.72932E+01
  weight for this iteration     100.00

 Free energy of the ion-electron system (eV)
  ---------------------------------------------------
  alpha Z        PSCENC =       566.55367808
  Ewald energy   TEWEN  =    -13652.41879169
  -Hartree energ DENC   =     -3845.18971481
  -exchange      EXHF   =         0.00000000
  -V(xc)+E(xc)   XCENC  =      1380.58283772
  PAW double counting   =     12142.57869666   -12978.10326946
  entropy T*S    EENTRO =         0.00000000
  eigenvalues    EBANDS =     -5392.40468124
  atomic energy  EATOM  =     21228.76925246
  Solvation  Ediel_sol  =         0.00000000
  ---------------------------------------------------
  free energy    TOTEN  =      -549.63199228 eV

  energy without entropy =     -549.63199228  energy(sigma->0) =     -549.63199228


--------------------------------------------------------------------------------------------------------




--------------------------------------- Iteration      1(   6)  ---------------------------------------


    POTLOK:  cpu time    0.2324: real time    0.2329
    SETDIJ:  cpu time    0.8119: real time    0.8135
    EDDIAG:  cpu time    5.4184: real time    5.4397
  RMM-DIIS:  cpu time    3.8354: real time    3.8496
    ORTHCH:  cpu time    0.6619: real time    0.6634
 BZINTS: Fermi energy:  3.556302;368.000000 electrons
         Band energy:***********;  BLOECHL correction:  0.000000
       DOS:  cpu time    0.0014: real time    0.0014
    CHARGE:  cpu time    0.7910: real time    0.7926
    MIXING:  cpu time    0.0237: real time    0.0295
    --------------------------------------------
      LOOP:  cpu time   11.7761: real time   11.8225

 eigenvalue-minimisations  :  3909
 total energy-change (2. order) : 0.5727978E+02  (-0.3231651E+02)
 number of electron     367.9999857 magnetization      -0.0000000
 augmentation part       56.7482303 magnetization      -0.0029823

 Broyden mixing:
  rms(total) = 0.22004E+01    rms(broyden)= 0.21999E+01
  rms(prec ) = 0.23708E+01
  weight for this iteration     100.00

 eigenvalues of (default mixing * dielectric matrix)
  average eigenvalue GAMMA=   1.1173
  1.1173

 Free energy of the ion-electron system (eV)
  ---------------------------------------------------
  alpha Z        PSCENC =       566.55367808
  Ewald energy   TEWEN  =    -13652.41879169
  -Hartree energ DENC   =     -4219.07559178
  -exchange      EXHF   =         0.00000000
  -V(xc)+E(xc)   XCENC  =      1409.22065554
  PAW double counting   =     18749.29841649   -19592.20489276
  entropy T*S    EENTRO =         0.00000000
  eigenvalues    EBANDS =     -4982.49494271
  atomic energy  EATOM  =     21228.76925246
  Solvation  Ediel_sol  =         0.00000000
  ---------------------------------------------------
  free energy    TOTEN  =      -492.35221638 eV

  energy without entropy =     -492.35221638  energy(sigma->0) =     -492.35221638


--------------------------------------------------------------------------------------------------------




--------------------------------------- Iteration      1(   7)  ---------------------------------------


    POTLOK:  cpu time    0.2395: real time    0.2401
    SETDIJ:  cpu time    0.8121: real time    0.8136
    EDDIAG:  cpu time    5.3159: real time    5.3268
  RMM-DIIS:  cpu time    5.4097: real time    5.4220
    ORTHCH:  cpu time    0.6644: real time    0.6655
 BZINTS: Fermi energy:  3.779390;368.000000 electrons
         Band energy:***********;  BLOECHL correction:  0.000000
       DOS:  cpu time    0.0015: real time    0.0015
    CHARGE:  cpu time    0.8085: real time    0.8104
    MIXING:  cpu time    0.0138: real time    0.0138
    --------------------------------------------
      LOOP:  cpu time   13.2655: real time   13.2937

 eigenvalue-minimisations  :  5716
 total energy-change (2. order) : 0.4672396E+01  (-0.2209532E+01)
 number of electron     367.9999859 magnetization       0.0000000
 augmentation part       55.1597091 magnetization      -0.0032720

 Broyden mixing:
  rms(total) = 0.12404E+01    rms(broyden)= 0.12401E+01
  rms(prec ) = 0.13772E+01
  weight for this iteration     100.00

 eigenvalues of (default mixing * dielectric matrix)
  average eigenvalue GAMMA=   1.5933
  1.3099  1.8766

 Free energy of the ion-electron system (eV)
  ---------------------------------------------------
  alpha Z        PSCENC =       566.55367808
  Ewald energy   TEWEN  =    -13652.41879169
  -Hartree energ DENC   =     -4237.86970237
  -exchange      EXHF   =         0.00000000
  -V(xc)+E(xc)   XCENC  =      1410.54515355
  PAW double counting   =     23848.82188563   -24693.34270810
  entropy T*S    EENTRO =         0.00000000
  eigenvalues    EBANDS =     -4958.73858805
  atomic energy  EATOM  =     21228.76925246
  Solvation  Ediel_sol  =         0.00000000
  ---------------------------------------------------
  free energy    TOTEN  =      -487.67982050 eV

  energy without entropy =     -487.67982050  energy(sigma->0) =     -487.67982050


--------------------------------------------------------------------------------------------------------




--------------------------------------- Iteration      1(   8)  ---------------------------------------


    POTLOK:  cpu time    0.2468: real time    0.2476
    SETDIJ:  cpu time    0.8098: real time    0.8112
    EDDIAG:  cpu time    5.4505: real time    5.4619
  RMM-DIIS:  cpu time    4.7093: real time    4.7194
    ORTHCH:  cpu time    0.6626: real time    0.6640
 BZINTS: Fermi energy:  3.497359;368.000000 electrons
         Band energy:***********;  BLOECHL correction:  0.000000
       DOS:  cpu time    0.0015: real time    0.0015
    CHARGE:  cpu time    0.7952: real time    0.7969
    MIXING:  cpu time    0.0078: real time    0.0079
    --------------------------------------------
      LOOP:  cpu time   12.6836: real time   12.7103

 eigenvalue-minimisations  :  4928
 total energy-change (2. order) :-0.2516622E+00  (-0.1059794E+01)
 number of electron     367.9999859 magnetization       0.0000000
 augmentation part       55.5222872 magnetization      -0.0029871

 Broyden mixing:
  rms(total) = 0.43113E+00    rms(broyden)= 0.43099E+00
  rms(prec ) = 0.60576E+00
  weight for this iteration     100.00

 eigenvalues of (default mixing * dielectric matrix)
  average eigenvalue GAMMA=   1.5010
  2.2908  1.1061  1.1061

 Free energy of the ion-electron system (eV)
  ---------------------------------------------------
  alpha Z        PSCENC =       566.55367808
  Ewald energy   TEWEN  =    -13652.41879169
  -Hartree energ DENC   =     -4172.15615359
  -exchange      EXHF   =         0.00000000
  -V(xc)+E(xc)   XCENC  =      1405.79591289
  PAW double counting   =     28654.73210708   -29500.83910779
  entropy T*S    EENTRO =         0.00000000
  eigenvalues    EBANDS =     -5018.36838011
  atomic energy  EATOM  =     21228.76925246
  Solvation  Ediel_sol  =         0.00000000
  ---------------------------------------------------
  free energy    TOTEN  =      -487.93148267 eV

  energy without entropy =     -487.93148267  energy(sigma->0) =     -487.93148267


--------------------------------------------------------------------------------------------------------




--------------------------------------- Iteration      1(   9)  ---------------------------------------


    POTLOK:  cpu time    0.2402: real time    0.2408
    SETDIJ:  cpu time    0.8098: real time    0.8114
    EDDIAG:  cpu time    5.3104: real time    5.3230
  RMM-DIIS:  cpu time    4.9697: real time    4.9827
    ORTHCH:  cpu time    0.6604: real time    0.6618
 BZINTS: Fermi energy:  3.749683;368.000000 electrons
         Band energy:***********;  BLOECHL correction:  0.000000
       DOS:  cpu time    0.0015: real time    0.0015
    CHARGE:  cpu time    0.8055: real time    0.8070
    MIXING:  cpu time    0.0153: real time    0.0153
    --------------------------------------------
      LOOP:  cpu time   12.8128: real time   12.8436

 eigenvalue-minimisations  :  5289
 total energy-change (2. order) : 0.5089453E+00  (-0.4043576E+00)
 number of electron     367.9999860 magnetization       0.0000000
 augmentation part       54.7959256 magnetization      -0.0024852

 Broyden mixing:
  rms(total) = 0.14148E+00    rms(broyden)= 0.14107E+00
  rms(prec ) = 0.16278E+00
  weight for this iteration     100.00

 eigenvalues of (default mixing * dielectric matrix)
  average eigenvalue GAMMA=   1.5000
  2.2195  1.7050  1.0378  1.0378

 Free energy of the ion-electron system (eV)
  ---------------------------------------------------
  alpha Z        PSCENC =       566.55367808
  Ewald energy   TEWEN  =    -13652.41879169
  -Hartree energ DENC   =     -4227.81790503
  -exchange      EXHF   =         0.00000000
  -V(xc)+E(xc)   XCENC  =      1410.16152989
  PAW double counting   =     29818.57302496   -30665.48158406
  entropy T*S    EENTRO =         0.00000000
  eigenvalues    EBANDS =     -4965.76174201
  atomic energy  EATOM  =     21228.76925246
  Solvation  Ediel_sol  =         0.00000000
  ---------------------------------------------------
  free energy    TOTEN  =      -487.42253740 eV

  energy without entropy =     -487.42253740  energy(sigma->0) =     -487.42253740


--------------------------------------------------------------------------------------------------------




--------------------------------------- Iteration      1(  10)  ---------------------------------------


    POTLOK:  cpu time    0.2346: real time    0.2351
    SETDIJ:  cpu time    0.8153: real time    0.8167
    EDDIAG:  cpu time    5.3195: real time    5.3301
  RMM-DIIS:  cpu time    5.6640: real time    5.6762
    ORTHCH:  cpu time    0.6937: real time    0.6949
 BZINTS: Fermi energy:  3.747355;368.000000 electrons
         Band energy:***********;  BLOECHL correction:  0.000000
       DOS:  cpu time    0.0015: real time    0.0015
    CHARGE:  cpu time    0.7826: real time    0.7841
    MIXING:  cpu time    0.0103: real time    0.0103
    --------------------------------------------
      LOOP:  cpu time   13.5215: real time   13.5490

 eigenvalue-minimisations  :  5995
 total energy-change (2. order) :-0.1091302E+00  (-0.1214313E+00)
 number of electron     367.9999861 magnetization       0.0000000
 augmentation part       54.4589002 magnetization      -0.0022288

 Broyden mixing:
  rms(total) = 0.13887E+00    rms(broyden)= 0.13859E+00
  rms(prec ) = 0.17524E+00
  weight for this iteration     100.00

 eigenvalues of (default mixing * dielectric matrix)
  average eigenvalue GAMMA=   1.5392
  2.4890  2.4890  0.9917  0.9917  0.7347

 Free energy of the ion-electron system (eV)
  ---------------------------------------------------
  alpha Z        PSCENC =       566.55367808
  Ewald energy   TEWEN  =    -13652.41879169
  -Hartree energ DENC   =     -4230.92119257
  -exchange      EXHF   =         0.00000000
  -V(xc)+E(xc)   XCENC  =      1410.56236442
  PAW double counting   =     29480.85715120   -30327.27854202
  entropy T*S    EENTRO =         0.00000000
  eigenvalues    EBANDS =     -4963.65558752
  atomic energy  EATOM  =     21228.76925246
  Solvation  Ediel_sol  =         0.00000000
  ---------------------------------------------------
  free energy    TOTEN  =      -487.53166764 eV

  energy without entropy =     -487.53166764  energy(sigma->0) =     -487.53166764


--------------------------------------------------------------------------------------------------------




--------------------------------------- Iteration      1(  11)  ---------------------------------------


    POTLOK:  cpu time    0.2417: real time    0.2428
    SETDIJ:  cpu time    0.8119: real time    0.8140
    EDDIAG:  cpu time    5.3161: real time    5.3275
  RMM-DIIS:  cpu time    5.4276: real time    5.4411
    ORTHCH:  cpu time    0.6664: real time    0.6678
 BZINTS: Fermi energy:  3.736978;368.000000 electrons
         Band energy:***********;  BLOECHL correction:  0.000000
       DOS:  cpu time    0.0015: real time    0.0015
    CHARGE:  cpu time    0.7954: real time    0.7967
    MIXING:  cpu time    0.0217: real time    0.0217
    --------------------------------------------
      LOOP:  cpu time   13.2823: real time   13.3132

 eigenvalue-minimisations  :  5509
 total energy-change (2. order) : 0.9040492E-02  (-0.3469009E-01)
 number of electron     367.9999861 magnetization       0.0000000
 augmentation part       54.4267982 magnetization      -0.0009453

 Broyden mixing:
  rms(total) = 0.54022E-01    rms(broyden)= 0.53865E-01
  rms(prec ) = 0.65434E-01
  weight for this iteration     100.00

 eigenvalues of (default mixing * dielectric matrix)
  average eigenvalue GAMMA=   1.7265
  3.6122  1.9833  1.9833  1.0697  1.0697  0.6411

 Free energy of the ion-electron system (eV)
  ---------------------------------------------------
  alpha Z        PSCENC =       566.55367808
  Ewald energy   TEWEN  =    -13652.41879169
  -Hartree energ DENC   =     -4227.88004052
  -exchange      EXHF   =         0.00000000
  -V(xc)+E(xc)   XCENC  =      1410.45331085
  PAW double counting   =     29368.27532710   -30213.82425012
  entropy T*S    EENTRO =         0.00000000
  eigenvalues    EBANDS =     -4967.45111331
  atomic energy  EATOM  =     21228.76925246
  Solvation  Ediel_sol  =         0.00000000
  ---------------------------------------------------
  free energy    TOTEN  =      -487.52262715 eV

  energy without entropy =     -487.52262715  energy(sigma->0) =     -487.52262715


--------------------------------------------------------------------------------------------------------




--------------------------------------- Iteration      1(  12)  ---------------------------------------


    POTLOK:  cpu time    0.2413: real time    0.2422
    SETDIJ:  cpu time    0.8133: real time    0.8148
    EDDIAG:  cpu time    5.5461: real time    5.5572
  RMM-DIIS:  cpu time    5.5832: real time    5.5958
    ORTHCH:  cpu time    0.6557: real time    0.6568
 BZINTS: Fermi energy:  3.727702;368.000000 electrons
         Band energy:***********;  BLOECHL correction:  0.000000
       DOS:  cpu time    0.0015: real time    0.0015
    CHARGE:  cpu time    0.7831: real time    0.7848
    MIXING:  cpu time    0.0242: real time    0.0242
    --------------------------------------------
      LOOP:  cpu time   13.6483: real time   13.6772

 eigenvalue-minimisations  :  5786
 total energy-change (2. order) :-0.7440029E-02  (-0.1531862E-01)
 number of electron     367.9999861 magnetization      -0.0000000
 augmentation part       54.4341609 magnetization      -0.0002970

 Broyden mixing:
  rms(total) = 0.27356E-01    rms(broyden)= 0.27281E-01
  rms(prec ) = 0.33559E-01
  weight for this iteration     100.00

 eigenvalues of (default mixing * dielectric matrix)
  average eigenvalue GAMMA=   1.6717
  3.3821  2.3475  2.3475  1.0277  1.0277  0.9367  0.6327

 Free energy of the ion-electron system (eV)
  ---------------------------------------------------
  alpha Z        PSCENC =       566.55367808
  Ewald energy   TEWEN  =    -13652.41879169
  -Hartree energ DENC   =     -4226.41129580
  -exchange      EXHF   =         0.00000000
  -V(xc)+E(xc)   XCENC  =      1410.46200576
  PAW double counting   =     29377.90540681   -30222.18396840
  entropy T*S    EENTRO =         0.00000000
  eigenvalues    EBANDS =     -4970.20635440
  atomic energy  EATOM  =     21228.76925246
  Solvation  Ediel_sol  =         0.00000000
  ---------------------------------------------------
  free energy    TOTEN  =      -487.53006718 eV

  energy without entropy =     -487.53006718  energy(sigma->0) =     -487.53006718


--------------------------------------------------------------------------------------------------------




--------------------------------------- Iteration      1(  13)  ---------------------------------------


    POTLOK:  cpu time    0.2405: real time    0.2410
    SETDIJ:  cpu time    0.8136: real time    0.8151
    EDDIAG:  cpu time    5.3315: real time    5.3430
  RMM-DIIS:  cpu time    5.7720: real time    5.7845
    ORTHCH:  cpu time    0.6819: real time    0.6833
 BZINTS: Fermi energy:  3.721178;368.000000 electrons
         Band energy:***********;  BLOECHL correction:  0.000000
       DOS:  cpu time    0.0016: real time    0.0015
    CHARGE:  cpu time    0.7912: real time    0.7928
    MIXING:  cpu time    0.0190: real time    0.0190
    --------------------------------------------
      LOOP:  cpu time   13.6513: real time   13.6803

 eigenvalue-minimisations  :  6123
 total energy-change (2. order) :-0.4363130E-02  (-0.6344452E-02)
 number of electron     367.9999861 magnetization      -0.0000000
 augmentation part       54.3874105 magnetization      -0.0000518

 Broyden mixing:
  rms(total) = 0.10809E-01    rms(broyden)= 0.10729E-01
  rms(prec ) = 0.12544E-01
  weight for this iteration     100.00

 eigenvalues of (default mixing * dielectric matrix)
  average eigenvalue GAMMA=   1.6218
  3.7488  2.4268  2.4268  0.9979  0.9979  0.8736  0.8736  0.6288

 Free energy of the ion-electron system (eV)
  ---------------------------------------------------
  alpha Z        PSCENC =       566.55367808
  Ewald energy   TEWEN  =    -13652.41879169
  -Hartree energ DENC   =     -4227.59592388
  -exchange      EXHF   =         0.00000000
  -V(xc)+E(xc)   XCENC  =      1410.57048786
  PAW double counting   =     29366.13483949   -30209.96814229
  entropy T*S    EENTRO =         0.00000000
  eigenvalues    EBANDS =     -4969.57983034
  atomic energy  EATOM  =     21228.76925246
  Solvation  Ediel_sol  =         0.00000000
  ---------------------------------------------------
  free energy    TOTEN  =      -487.53443031 eV

  energy without entropy =     -487.53443031  energy(sigma->0) =     -487.53443031


--------------------------------------------------------------------------------------------------------




--------------------------------------- Iteration      1(  14)  ---------------------------------------


    POTLOK:  cpu time    0.2391: real time    0.2396
    SETDIJ:  cpu time    0.8147: real time    0.8161
    EDDIAG:  cpu time    5.3676: real time    5.3849
  RMM-DIIS:  cpu time    5.7834: real time    5.7958
    ORTHCH:  cpu time    0.6660: real time    0.6674
 BZINTS: Fermi energy:  3.714544;368.000000 electrons
         Band energy:***********;  BLOECHL correction:  0.000000
       DOS:  cpu time    0.0015: real time    0.0015
    CHARGE:  cpu time    0.7825: real time    0.7838
    MIXING:  cpu time    0.0233: real time    0.0239
    --------------------------------------------
      LOOP:  cpu time   13.6782: real time   13.7129

 eigenvalue-minimisations  :  6123
 total energy-change (2. order) :-0.2364462E-02  (-0.2574443E-02)
 number of electron     367.9999861 magnetization      -0.0000000
 augmentation part       54.3701955 magnetization       0.0000578

 Broyden mixing:
  rms(total) = 0.11588E-01    rms(broyden)= 0.11559E-01
  rms(prec ) = 0.14808E-01
  weight for this iteration     100.00

 eigenvalues of (default mixing * dielectric matrix)
  average eigenvalue GAMMA=   1.7570
  4.6930  2.7843  2.3390  1.5268  1.0461  1.0461  1.0048  0.6292  0.7439

 Free energy of the ion-electron system (eV)
  ---------------------------------------------------
  alpha Z        PSCENC =       566.55367808
  Ewald energy   TEWEN  =    -13652.41879169
  -Hartree energ DENC   =     -4227.79539107
  -exchange      EXHF   =         0.00000000
  -V(xc)+E(xc)   XCENC  =      1410.60782659
  PAW double counting   =     29367.27314261   -30210.76691597
  entropy T*S    EENTRO =         0.00000000
  eigenvalues    EBANDS =     -4969.75959578
  atomic energy  EATOM  =     21228.76925246
  Solvation  Ediel_sol  =         0.00000000
  ---------------------------------------------------
  free energy    TOTEN  =      -487.53679477 eV

  energy without entropy =     -487.53679477  energy(sigma->0) =     -487.53679477


--------------------------------------------------------------------------------------------------------




--------------------------------------- Iteration      1(  15)  ---------------------------------------


    POTLOK:  cpu time    0.2432: real time    0.2437
    SETDIJ:  cpu time    0.8099: real time    0.8115
    EDDIAG:  cpu time    5.3337: real time    5.3451
  RMM-DIIS:  cpu time    5.1850: real time    5.1960
    ORTHCH:  cpu time    0.6646: real time    0.6660
 BZINTS: Fermi energy:  3.709344;368.000000 electrons
         Band energy:***********;  BLOECHL correction:  0.000000
       DOS:  cpu time    0.0015: real time    0.0015
    CHARGE:  cpu time    0.7961: real time    0.7977
    MIXING:  cpu time    0.0118: real time    0.0118
    --------------------------------------------
      LOOP:  cpu time   13.0458: real time   13.0732

 eigenvalue-minimisations  :  5359
 total energy-change (2. order) :-0.8282009E-03  (-0.1403101E-02)
 number of electron     367.9999861 magnetization       0.0000000
 augmentation part       54.3448373 magnetization       0.0000362

 Broyden mixing:
  rms(total) = 0.38905E-02    rms(broyden)= 0.38518E-02
  rms(prec ) = 0.46287E-02
  weight for this iteration     100.00

 eigenvalues of (default mixing * dielectric matrix)
  average eigenvalue GAMMA=   1.6319
  3.1626  3.1626  2.3002  2.2249  1.0441  1.0441  1.0366  1.0366  0.6802  0.6274

 Free energy of the ion-electron system (eV)
  ---------------------------------------------------
  alpha Z        PSCENC =       566.55367808
  Ewald energy   TEWEN  =    -13652.41879169
  -Hartree energ DENC   =     -4228.99531404
  -exchange      EXHF   =         0.00000000
  -V(xc)+E(xc)   XCENC  =      1410.71681366
  PAW double counting   =     29382.72753621   -30225.88968630
  entropy T*S    EENTRO =         0.00000000
  eigenvalues    EBANDS =     -4969.00111134
  atomic energy  EATOM  =     21228.76925246
  Solvation  Ediel_sol  =         0.00000000
  ---------------------------------------------------
  free energy    TOTEN  =      -487.53762297 eV

  energy without entropy =     -487.53762297  energy(sigma->0) =     -487.53762297


--------------------------------------------------------------------------------------------------------




--------------------------------------- Iteration      1(  16)  ---------------------------------------


    POTLOK:  cpu time    0.2431: real time    0.2439
    SETDIJ:  cpu time    0.8091: real time    0.8109
    EDDIAG:  cpu time    5.3167: real time    5.3276
  RMM-DIIS:  cpu time    5.0751: real time    5.0860
    ORTHCH:  cpu time    0.6779: real time    0.6793
 BZINTS: Fermi energy:  3.702972;368.000000 electrons
         Band energy:***********;  BLOECHL correction:  0.000000
       DOS:  cpu time    0.0015: real time    0.0015
    CHARGE:  cpu time    0.8032: real time    0.8058
    MIXING:  cpu time    0.0167: real time    0.0167
    --------------------------------------------
      LOOP:  cpu time   12.9432: real time   12.9717

 eigenvalue-minimisations  :  5296
 total energy-change (2. order) :-0.6605656E-03  (-0.6553002E-03)
 number of electron     367.9999861 magnetization       0.0000000
 augmentation part       54.3327205 magnetization      -0.0000222

 Broyden mixing:
  rms(total) = 0.51810E-02    rms(broyden)= 0.51636E-02
  rms(prec ) = 0.61661E-02
  weight for this iteration     100.00

 eigenvalues of (default mixing * dielectric matrix)
  average eigenvalue GAMMA=   1.5678
[...]
   -.463E+02 0.544E+02 -.317E+02   0.536E+02 -.633E+02 0.390E+02   -.728E+01 0.891E+01 -.735E+01   0.451E-02 -.390E-02 0.406E-02
   -.317E+02 0.463E+02 -.544E+02   0.390E+02 -.536E+02 0.633E+02   -.735E+01 0.728E+01 -.891E+01   0.406E-02 -.451E-02 0.390E-02
   -.317E+02 -.463E+02 0.544E+02   0.390E+02 0.536E+02 -.633E+02   -.735E+01 -.728E+01 0.891E+01   0.406E-02 0.451E-02 -.390E-02
 -----------------------------------------------------------------------------------------------
   0.131E-05 0.131E-05 -.793E-07   0.995E-13 -.171E-12 -.114E-12   -.178E-14 -.266E-14 -.888E-14   0.231E-11 -.317E-11 0.512E-11
 
 
 POSITION                                       TOTAL-FORCE (eV/Angst)
 -----------------------------------------------------------------------------------
      0.00000      4.68710      4.68710        -0.000000     -0.000000      0.000000
      4.68710     -0.00000      0.00000        -0.000000     -0.000000      0.000000
     -0.00000      0.00000      4.68710        -0.000000     -0.000000      0.000000
      0.00000      4.68710      0.00000        -0.000000      0.000000      0.000000
      4.68710     -0.00000      4.68710        -0.000000     -0.000000      0.000000
      4.68710      4.68710      0.00000        -0.000000      0.000000      0.000000
      2.34355     -0.00000      4.68710        -0.000000     -0.000000      0.000000
      0.00000      4.68710      7.03065        -0.000000     -0.000000      0.000000
      0.00000      4.68710      2.34355        -0.000000     -0.000000      0.000000
      4.68710      2.34355      0.00000        -0.000000      0.000000      0.000000
      4.68710      7.03065      0.00000        -0.000000      0.000000      0.000000
      7.03065     -0.00000      4.68710        -0.000000     -0.000000      0.000000
      2.10959      2.10959      2.10959        -0.001636     -0.001636     -0.001636
      2.57751      6.79669      2.57751         0.001636     -0.001636      0.001636
      2.57751      2.57751      6.79669         0.001636      0.001636     -0.001636
      6.79669      2.57751      2.57751        -0.001636      0.001636      0.001636
      7.26461      7.26461      2.10959         0.001636      0.001636     -0.001636
      2.10959      7.26461      7.26461        -0.001636      0.001636      0.001636
      7.26461      2.10959      7.26461         0.001636     -0.001636      0.001636
      6.79669      6.79669      6.79669        -0.001636     -0.001636     -0.001636
      2.37594      2.23114      9.14048         0.000232     -0.001710     -0.002159
      2.31116      4.45338      2.45595        -0.000232     -0.002159      0.001710
      2.31116      4.92082      6.91824        -0.000232      0.002159     -0.001710
      4.92082      2.45595      7.06304         0.002159      0.001710      0.000232
      4.45338      2.45595      2.31116        -0.002159      0.001710     -0.000232
      6.91824      2.31116      4.92082        -0.001710     -0.000232      0.002159
      2.45595      7.06304      4.92082         0.001710      0.000232      0.002159
      9.14048      2.37594      2.23114        -0.002159      0.000232     -0.001710
      2.23114      9.14048      2.37594        -0.001710     -0.002159      0.000232
      7.14305      0.23372      2.37594         0.001710      0.002159      0.000232
      9.14048      6.99825      7.14305        -0.002159     -0.000232      0.001710
      7.14305      9.14048      6.99825         0.001710     -0.002159     -0.000232
      0.23372      6.99825      2.23114         0.002159     -0.000232     -0.001710
      0.23372      2.37594      7.14305         0.002159      0.000232      0.001710
      2.23114      0.23372      6.99825        -0.001710      0.002159     -0.000232
      2.37594      7.14305      0.23372         0.000232      0.001710      0.002159
      6.99825      2.23114      0.23372        -0.000232     -0.001710      0.002159
      6.99825      7.14305      9.14048        -0.000232      0.001710     -0.002159
      2.45595      2.31116      4.45338         0.001710     -0.000232     -0.002159
      6.91824      7.06304      4.45338        -0.001710      0.000232     -0.002159
      4.92082      6.91824      2.31116         0.002159     -0.001710     -0.000232
      4.45338      6.91824      7.06304        -0.002159     -0.001710      0.000232
      7.06304      4.92082      2.45595         0.000232      0.002159      0.001710
      7.06304      4.45338      6.91824         0.000232     -0.002159     -0.001710
      2.47080     -0.00000      0.00000         0.001259     -0.000000      0.000000
      2.21630      4.68710      4.68710        -0.001259      0.000000      0.000000
      4.68710      4.68710      7.15790        -0.000000      0.000000      0.001259
      4.68710      4.68710      2.21630        -0.000000     -0.000000     -0.001259
      4.68710      2.21630      4.68710        -0.000000     -0.001259      0.000000
      4.68710      7.15790      4.68710        -0.000000      0.001259      0.000000
      0.00000      2.47080      0.00000        -0.000000      0.001259      0.000000
     -0.00000      0.00000      2.47080        -0.000000      0.000000      0.001259
      0.00000      6.90340      0.00000        -0.000000     -0.001259      0.000000
     -0.00000      0.00000      6.90340        -0.000000     -0.000000     -0.001259
      6.90340     -0.00000      0.00000        -0.001259      0.000000      0.000000
      7.15790      4.68710      4.68710         0.001259     -0.000000      0.000000
      4.68710      4.68710      4.68710        -0.000000     -0.000000      0.000000
     -0.00000      0.00000      0.00000        -0.000000     -0.000000      0.000000
      4.68710     -0.00000      7.03065        -0.000000     -0.000000      0.000000
      7.03065      4.68710      0.00000        -0.000000     -0.000000      0.000000
      2.34355      4.68710      0.00000        -0.000000      0.000000      0.000000
      0.00000      2.34355      4.68710        -0.000000     -0.000000      0.000000
      0.00000      7.03065      4.68710        -0.000000      0.000000      0.000000
      4.68710     -0.00000      2.34355        -0.000000     -0.000000      0.000000
      5.65946      5.65946      5.65946         0.000674      0.000674      0.000674
      8.40184      0.97236      8.40184        -0.000674      0.000674     -0.000674
      0.97236      8.40184      8.40184         0.000674     -0.000674     -0.000674
      8.40184      8.40184      0.97236        -0.000674     -0.000674      0.000674
      5.65946      3.71474      3.71474         0.000674     -0.000674     -0.000674
      3.71474      3.71474      5.65946        -0.000674     -0.000674      0.000674
      3.71474      5.65946      3.71474        -0.000674      0.000674     -0.000674
      0.97236      0.97236      0.97236         0.000674      0.000674      0.000674
      3.28992      3.62826      0.93398        -0.001986      0.003071     -0.001667
      1.39718      5.62108      1.05884         0.001986     -0.001667     -0.003071
      1.39718      3.75312      8.31536         0.001986      0.001667      0.003071
      3.75312      1.05884      7.97702         0.001667     -0.003071     -0.001986
      5.62108      1.05884      1.39718        -0.001667     -0.003071      0.001986
      8.31536      1.39718      3.75312         0.003071      0.001986      0.001667
      1.05884      7.97702      3.75312        -0.003071     -0.001986      0.001667
      0.93398      3.28992      3.62826        -0.001667     -0.001986      0.003071
      3.62826      0.93398      3.28992         0.003071     -0.001667     -0.001986
      5.74594      8.44022      3.28992        -0.003071      0.001667     -0.001986
      0.93398      6.08428      5.74594        -0.001667      0.001986     -0.003071
      5.74594      0.93398      6.08428        -0.003071     -0.001667      0.001986
      8.44022      6.08428      3.62826         0.001667      0.001986      0.003071
      8.44022      3.28992      5.74594         0.001667     -0.001986     -0.003071
      3.62826      8.44022      6.08428         0.003071      0.001667      0.001986
      3.28992      5.74594      8.44022        -0.001986     -0.003071      0.001667
      6.08428      3.62826      8.44022         0.001986      0.003071      0.001667
      6.08428      5.74594      0.93398         0.001986     -0.003071     -0.001667
      1.05884      1.39718      5.62108        -0.003071      0.001986     -0.001667
      8.31536      7.97702      5.62108         0.003071     -0.001986     -0.001667
      3.75312      8.31536      1.39718         0.001667      0.003071      0.001986
      5.62108      8.31536      7.97702        -0.001667      0.003071     -0.001986
      7.97702      3.75312      1.05884        -0.001986      0.001667     -0.003071
      7.97702      5.62108      8.31536        -0.001986     -0.001667      0.003071
 -----------------------------------------------------------------------------------
    total drift:                                0.000001      0.000001     -0.000000


--------------------------------------------------------------------------------------------------------



  FREE ENERGIE OF THE ION-ELECTRON SYSTEM (eV)
  ---------------------------------------------------
  free  energy   TOTEN  =      -487.57195620 eV

  energy  without entropy=     -487.57195620  energy(sigma->0) =     -487.57195620
 
 d Force = 0.9839711E-05[ 0.946E-05, 0.102E-04]  d Energy = 0.2242188E-04-0.126E-04
 d Force =-0.2061304E+00[-0.206E+00,-0.206E+00]  d Ewald  =-0.5950454E-02-0.200E+00


--------------------------------------------------------------------------------------------------------


    POTLOK:  cpu time    0.6756: real time    0.6781


--------------------------------------------------------------------------------------------------------




--------------------------------------------------------------------------------------------------------


  
 reached required accuracy - stopping structural energy minimisation
     LOOP+:  cpu time   29.4510: real time   29.5279
    4ORBIT:  cpu time    0.0000: real time    0.0000
 


 total charge     
 
# of ion       s       p       d       tot
------------------------------------------
    1        2.050   0.118   0.000   2.168
    2        2.050   0.118   0.000   2.168
    3        2.050   0.118   0.000   2.168
    4        2.050   0.118   0.000   2.168
    5        2.050   0.118   0.000   2.168
    6        2.050   0.118   0.000   2.168
    7        2.036   0.084   0.000   2.120
    8        2.036   0.084   0.000   2.120
    9        2.036   0.084   0.000   2.120
   10        2.036   0.084   0.000   2.120
   11        2.036   0.084   0.000   2.120
   12        2.036   0.084   0.000   2.120
   13        2.030   0.074   0.000   2.105
   14        2.030   0.074   0.000   2.105
   15        2.030   0.074   0.000   2.105
   16        2.030   0.074   0.000   2.105
   17        2.030   0.074   0.000   2.105
   18        2.030   0.074   0.000   2.105
   19        2.030   0.074   0.000   2.105
   20        2.030   0.074   0.000   2.105
   21        2.036   0.088   0.000   2.123
   22        2.036   0.087   0.000   2.123
   23        2.036   0.087   0.000   2.123
   24        2.036   0.088   0.000   2.123
   25        2.036   0.088   0.000   2.123
   26        2.036   0.088   0.000   2.123
   27        2.036   0.088   0.000   2.123
   28        2.036   0.087   0.000   2.123
   29        2.036   0.088   0.000   2.123
   30        2.036   0.088   0.000   2.123
   31        2.036   0.087   0.000   2.123
   32        2.036   0.088   0.000   2.123
   33        2.036   0.087   0.000   2.123
   34        2.036   0.088   0.000   2.123
   35        2.036   0.088   0.000   2.123
   36        2.036   0.088   0.000   2.123
   37        2.036   0.088   0.000   2.123
   38        2.036   0.088   0.000   2.123
   39        2.036   0.088   0.000   2.123
   40        2.036   0.088   0.000   2.123
   41        2.036   0.088   0.000   2.123
   42        2.036   0.088   0.000   2.123
   43        2.036   0.087   0.000   2.123
   44        2.036   0.087   0.000   2.123
   45        2.038   0.092   0.000   2.130
   46        2.038   0.092   0.000   2.130
   47        2.039   0.092   0.000   2.130
   48        2.039   0.092   0.000   2.130
   49        2.038   0.092   0.000   2.130
   50        2.038   0.092   0.000   2.130
   51        2.039   0.092   0.000   2.130
   52        2.039   0.092   0.000   2.130
   53        2.039   0.092   0.000   2.130
   54        2.039   0.092   0.000   2.130
   55        2.038   0.092   0.000   2.130
   56        2.038   0.092   0.000   2.130
   57        0.925   1.446   0.000   2.371
   58        0.925   1.446   0.000   2.371
   59        0.925   1.427   0.000   2.351
   60        0.924   1.426   0.000   2.351
   61        0.924   1.426   0.000   2.351
   62        0.924   1.426   0.000   2.351
   63        0.924   1.426   0.000   2.351
   64        0.925   1.427   0.000   2.351
   65        1.222   2.554   0.000   3.777
   66        1.222   2.554   0.000   3.776
   67        1.222   2.554   0.000   3.776
   68        1.222   2.554   0.000   3.776
   69        1.222   2.554   0.000   3.776
   70        1.222   2.554   0.000   3.776
   71        1.222   2.554   0.000   3.776
   72        1.222   2.554   0.000   3.777
   73        1.220   2.548   0.000   3.768
   74        1.220   2.548   0.000   3.768
   75        1.220   2.548   0.000   3.769
   76        1.220   2.547   0.000   3.767
   77        1.220   2.547   0.000   3.767
   78        1.220   2.548   0.000   3.768
   79        1.220   2.548   0.000   3.767
   80        1.220   2.548   0.000   3.768
   81        1.220   2.547   0.000   3.767
   82        1.220   2.547   0.000   3.767
   83        1.220   2.548   0.000   3.768
   84        1.220   2.547   0.000   3.767
   85        1.220   2.548   0.000   3.768
   86        1.220   2.548   0.000   3.768
   87        1.220   2.547   0.000   3.767
   88        1.220   2.548   0.000   3.768
   89        1.220   2.548   0.000   3.768
   90        1.220   2.548   0.000   3.768
   91        1.220   2.548   0.000   3.768
   92        1.220   2.548   0.000   3.768
   93        1.220   2.547   0.000   3.767
   94        1.220   2.547   0.000   3.767
   95        1.220   2.548   0.000   3.768
   96        1.220   2.548   0.000   3.768
--------------------------------------------------
tot        160.538  98.033   0.000 258.571
 


 magnetization (x)
 
# of ion       s       p       d       tot
------------------------------------------
    1        0.000  -0.000   0.000   0.000
    2        0.000  -0.000   0.000  -0.000
    3        0.000   0.000   0.000   0.000
    4        0.000  -0.000   0.000   0.000
    5        0.000  -0.000   0.000  -0.000
    6        0.000   0.000   0.000   0.000
    7       -0.000  -0.000   0.000  -0.000
    8       -0.000  -0.000   0.000  -0.000
    9       -0.000  -0.000   0.000  -0.000
   10        0.000  -0.000   0.000  -0.000
   11       -0.000  -0.000   0.000  -0.000
   12       -0.000  -0.000   0.000  -0.000
   13        0.000   0.000   0.000   0.000
   14       -0.000   0.000   0.000   0.000
   15       -0.000   0.000   0.000   0.000
   16       -0.000   0.000   0.000   0.000
   17       -0.000   0.000   0.000   0.000
   18       -0.000   0.000   0.000   0.000
   19       -0.000   0.000   0.000   0.000
   20        0.000   0.000   0.000   0.000
   21        0.000   0.000   0.000   0.000
   22        0.000   0.000   0.000   0.000
   23        0.000   0.000   0.000   0.000
   24       -0.000   0.000   0.000   0.000
   25        0.000   0.000   0.000   0.000
   26        0.000   0.000   0.000   0.000
   27        0.000   0.000   0.000   0.000
   28        0.000   0.000   0.000   0.000
   29        0.000   0.000   0.000   0.000
   30       -0.000   0.000   0.000   0.000
   31        0.000   0.000   0.000   0.000
   32       -0.000   0.000   0.000   0.000
   33        0.000   0.000   0.000   0.000
   34        0.000   0.000   0.000   0.000
   35       -0.000   0.000   0.000   0.000
   36        0.000   0.000   0.000   0.000
   37        0.000   0.000   0.000   0.000
   38        0.000   0.000   0.000   0.000
   39        0.000   0.000   0.000   0.000
   40        0.000   0.000   0.000   0.000
   41       -0.000   0.000   0.000   0.000
   42       -0.000   0.000   0.000   0.000
   43        0.000   0.000   0.000   0.000
   44        0.000   0.000   0.000   0.000
   45       -0.000  -0.000   0.000  -0.000
   46       -0.000  -0.000   0.000  -0.000
   47       -0.000  -0.000   0.000  -0.000
   48       -0.000  -0.000   0.000  -0.000
   49       -0.000  -0.000   0.000  -0.000
   50       -0.000  -0.000   0.000  -0.000
   51        0.000  -0.000   0.000  -0.000
   52       -0.000  -0.000   0.000  -0.000
   53       -0.000  -0.000   0.000  -0.000
   54       -0.000  -0.000   0.000  -0.000
   55       -0.000  -0.000   0.000  -0.000
   56       -0.000  -0.000   0.000  -0.000
   57        0.000   0.000   0.000   0.000
   58        0.000   0.000   0.000   0.000
   59        0.000   0.000   0.000   0.000
   60       -0.000   0.000   0.000  -0.000
   61       -0.000   0.000   0.000  -0.000
   62       -0.000   0.000   0.000  -0.000
   63       -0.000   0.000   0.000  -0.000
   64        0.000   0.000   0.000   0.000
   65        0.000   0.000   0.000   0.000
   66        0.000  -0.000   0.000  -0.000
   67        0.000  -0.000   0.000  -0.000
   68        0.000  -0.000   0.000  -0.000
   69        0.000  -0.000   0.000  -0.000
   70        0.000  -0.000   0.000  -0.000
   71        0.000  -0.000   0.000  -0.000
   72        0.000   0.000   0.000   0.000
   73       -0.000  -0.000   0.000  -0.000
   74       -0.000   0.000   0.000   0.000
   75       -0.000   0.000   0.000   0.000
   76       -0.000   0.000   0.000   0.000
   77        0.000   0.000   0.000   0.000
   78       -0.000   0.000   0.000   0.000
   79       -0.000   0.000   0.000   0.000
   80       -0.000  -0.000   0.000  -0.000
   81       -0.000   0.000   0.000   0.000
   82       -0.000   0.000   0.000   0.000
   83       -0.000   0.000   0.000   0.000
   84        0.000   0.000   0.000   0.000
   85       -0.000   0.000   0.000   0.000
   86       -0.000   0.000   0.000   0.000
   87        0.000   0.000   0.000   0.000
   88       -0.000   0.000   0.000   0.000
   89       -0.000   0.000   0.000   0.000
   90       -0.000   0.000   0.000   0.000
   91       -0.000   0.000   0.000   0.000
   92       -0.000  -0.000   0.000  -0.000
   93       -0.000   0.000   0.000   0.000
   94       -0.000   0.000   0.000   0.000
   95       -0.000   0.000   0.000   0.000
   96       -0.000   0.000   0.000   0.000
--------------------------------------------------
tot          0.000   0.000   0.000   0.000
 
 BZINTS: Fermi energy:  3.731393;368.000000 electrons
         Band energy:***********;  BLOECHL correction:  0.000000

 total amount of memory used by VASP MPI-rank0    59844. kBytes
=======================================================================

   base      :      30000. kBytes
   nonlr-proj:      11116. kBytes
   fftplans  :       3007. kBytes
   grid      :       8220. kBytes
   one-center:         98. kBytes
   wavefun   :       7403. kBytes
 
  
  
 General timing and accounting informations for this job:
 ========================================================
  
                  Total CPU time used (sec):     1452.352
                            User time (sec):     1419.780
                          System time (sec):       32.572
                         Elapsed time (sec):     1460.330
  
                   Maximum memory used (kb):      162356.
                   Average memory used (kb):           0.
  
                          Minor page faults:       366694
                          Major page faults:            0
                 Voluntary context switches:       397231
