       N       E                     dE             d eps       ncg     rms          rms(c)
DAV:   1     0.653689050161E+02    0.65369E+02   -0.58271E+03  4480   0.884E+02
DAV:   2    -0.722887245079E+01   -0.72598E+02   -0.67054E+02  5696   0.219E+02
DAV:   3    -0.183738600515E+02   -0.11145E+02   -0.11053E+02  8800   0.557E+01
DAV:   4    -0.185424996613E+02   -0.16864E+00   -0.16856E+00  4976   0.953E+00
DAV:   5    -0.185449072196E+02   -0.24076E-02   -0.24075E-02  6744   0.929E-01    0.141E+01
RMM:   6    -0.157360393367E+02    0.28089E+01   -0.56242E+00  5152   0.105E+01    0.686E+00
RMM:   7    -0.156676981452E+02    0.68341E-01   -0.48540E-01  5253   0.580E+00    0.235E+00
RMM:   8    -0.155678835472E+02    0.99815E-01   -0.15614E-01  6242   0.280E+00    0.137E+00
RMM:   9    -0.155847070889E+02   -0.16824E-01   -0.60664E-02  6250   0.191E+00    0.510E-01
RMM:  10    -0.155855787166E+02   -0.87163E-03   -0.18818E-02  7294   0.904E-01    0.242E-01
RMM:  11    -0.155863469499E+02   -0.76823E-03   -0.53825E-03  6788   0.452E-01    0.123E-01
RMM:  12    -0.155869889004E+02   -0.64195E-03   -0.26470E-03  6841   0.376E-01    0.442E-02
RMM:  13    -0.155871597838E+02   -0.17088E-03   -0.13419E-03  7407   0.187E-01    0.272E-02
RMM:  14    -0.155872253139E+02   -0.65530E-04   -0.46792E-04  7260   0.111E-01    0.974E-03
RMM:  15    -0.155872504979E+02   -0.25184E-04   -0.14256E-04  6520   0.680E-02    0.753E-03
RMM:  16    -0.155872563755E+02   -0.58777E-05   -0.54774E-05  6124   0.395E-02
   1 F= -.15587256E+02 E0= -.15587256E+02  d E =0.000000E+00  mag=     0.0000
