       N       E                     dE             d eps       ncg     rms          rms(c)
DAV:   1     0.670659844437E+02    0.67066E+02   -0.58713E+03  4488   0.891E+02
DAV:   2    -0.787810560740E+01   -0.74944E+02   -0.69750E+02  5768   0.228E+02
DAV:   3    -0.185940814505E+02   -0.10716E+02   -0.10626E+02  8664   0.569E+01
DAV:   4    -0.187452330093E+02   -0.15115E+00   -0.15113E+00  5120   0.940E+00
DAV:   5    -0.187475045498E+02   -0.22715E-02   -0.22715E-02  6720   0.891E-01    0.143E+01
RMM:   6    -0.156745723362E+02    0.30729E+01   -0.55846E+00  5113   0.107E+01    0.662E+00
RMM:   7    -0.156638375640E+02    0.10735E-01   -0.41237E-01  5507   0.551E+00    0.250E+00
RMM:   8    -0.155882501243E+02    0.75587E-01   -0.12661E-01  6365   0.254E+00    0.146E+00
RMM:   9    -0.155981899797E+02   -0.99399E-02   -0.64559E-02  6323   0.192E+00    0.458E-01
RMM:  10    -0.155998514370E+02   -0.16615E-02   -0.20140E-02  7257   0.933E-01    0.235E-01
RMM:  11    -0.156007419499E+02   -0.89051E-03   -0.52598E-03  6935   0.433E-01    0.108E-01
RMM:  12    -0.156013084914E+02   -0.56654E-03   -0.22930E-03  6938   0.339E-01    0.414E-02
RMM:  13    -0.156014597234E+02   -0.15123E-03   -0.10015E-03  7410   0.179E-01    0.271E-02
RMM:  14    -0.156015113195E+02   -0.51596E-04   -0.34689E-04  7119   0.105E-01    0.677E-03
RMM:  15    -0.156015275634E+02   -0.16244E-04   -0.11760E-04  6605   0.616E-02    0.491E-03
RMM:  16    -0.156015321712E+02   -0.46078E-05   -0.40506E-05  5774   0.371E-02
   1 F= -.15601532E+02 E0= -.15601532E+02  d E =0.000000E+00  mag=     0.0000
