 running on   24 total cores
 distrk:  each k-point on   24 cores,    1 groups
 distr:  one band on    6 cores,    4 groups
 using from now: INCAR     
 vasp.6.1.2 22Jul20 (build Mar 31 2021 18:09:49) complex                        
  
 POSCAR found type information on POSCAR LiO 
 POSCAR found :  2 types and       8 ions
 scaLAPACK will be used
 -----------------------------------------------------------------------------
|                                                                             |
|               ----> ADVICE to this user running VASP <----                  |
|                                                                             |
|     You have a (more or less) 'small supercell' and for smaller cells       |
|     it is recommended to use the reciprocal-space projection scheme!        |
|     The real-space optimization is not efficient for small cells and it     |
|     is also less accurate ...                                               |
|     Therefore, set LREAL=.FALSE. in the INCAR file.                         |
|                                                                             |
 -----------------------------------------------------------------------------

 LDA part: xc-table for Pade appr. of Perdew
 generate k-points for:   12   12    4
 POSCAR, INCAR and KPOINTS ok, starting setup
 FFT: planning ...
 WAVECAR not read
 entering main loop
       N       E                     dE             d eps       ncg     rms          rms(c)
DAV:   1     0.253703563436E+03    0.25370E+03   -0.17315E+04 18368   0.137E+03
DAV:   2    -0.145877423427E+02   -0.26829E+03   -0.25811E+03 21996   0.349E+02
DAV:   3    -0.376038764622E+02   -0.23016E+02   -0.22825E+02 29760   0.846E+01
DAV:   4    -0.392193750277E+02   -0.16155E+01   -0.16088E+01 27108   0.211E+01
DAV:   5    -0.392669974706E+02   -0.47622E-01   -0.47619E-01 26028   0.312E+00    0.178E+01
RMM:   6    -0.381481875100E+02    0.11188E+01   -0.45170E+00 20488   0.109E+01    0.783E+00
RMM:   7    -0.387537476169E+02   -0.60556E+00   -0.68336E-01 23167   0.508E+00    0.389E+00
RMM:   8    -0.388310570672E+02   -0.77309E-01   -0.30713E-01 27215   0.315E+00    0.156E+00
RMM:   9    -0.388415285224E+02   -0.10471E-01   -0.10346E-01 28810   0.204E+00    0.385E-01
RMM:  10    -0.388510330956E+02   -0.95046E-02   -0.53492E-02 32421   0.115E+00    0.187E-01
RMM:  11    -0.388548256547E+02   -0.37926E-02   -0.20498E-02 33096   0.670E-01    0.127E-01
RMM:  12    -0.388561230065E+02   -0.12974E-02   -0.85778E-03 34291   0.402E-01    0.914E-02
RMM:  13    -0.388565356242E+02   -0.41262E-03   -0.32071E-03 32938   0.273E-01    0.371E-02
RMM:  14    -0.388567941124E+02   -0.25849E-03   -0.16139E-03 33444   0.190E-01    0.891E-03
RMM:  15    -0.388568835199E+02   -0.89407E-04   -0.74143E-04 31696   0.112E-01    0.931E-03
RMM:  16    -0.388569174586E+02   -0.33939E-04   -0.30935E-04 30571   0.738E-02    0.594E-03
RMM:  17    -0.388569305584E+02   -0.13100E-04   -0.12204E-04 28140   0.509E-02    0.335E-03
RMM:  18    -0.388569348259E+02   -0.42675E-05   -0.44109E-05 24067   0.373E-02
   1 F= -.38856935E+02 E0= -.38856935E+02  d E =0.000000E+00  mag=    -0.0000
