       N       E                     dE             d eps       ncg     rms          rms(c)
DAV:   1     0.156184079638E+03    0.15618E+03   -0.12077E+04  9776   0.128E+03
DAV:   2     0.157370591094E+01   -0.15461E+03   -0.14673E+03 10846   0.315E+02
DAV:   3    -0.233122579454E+02   -0.24886E+02   -0.24724E+02 16900   0.736E+01
DAV:   4    -0.263443229111E+02   -0.30321E+01   -0.30099E+01 14790   0.347E+01
DAV:   5    -0.266176636443E+02   -0.27334E+00   -0.27331E+00 15836   0.806E+00    0.148E+01
RMM:   6    -0.270871519396E+02   -0.46949E+00   -0.18378E+00 12055   0.685E+00    0.751E+00
RMM:   7    -0.277835980707E+02   -0.69645E+00   -0.58768E-01 13470   0.469E+00    0.279E+00
RMM:   8    -0.278631069624E+02   -0.79509E-01   -0.51063E-01 15582   0.326E+00    0.122E+00
RMM:   9    -0.278732502731E+02   -0.10143E-01   -0.11433E-01 16386   0.197E+00    0.572E-01
RMM:  10    -0.278819635254E+02   -0.87133E-02   -0.55187E-02 17137   0.116E+00    0.278E-01
RMM:  11    -0.278847784309E+02   -0.28149E-02   -0.21506E-02 17440   0.684E-01    0.216E-01
RMM:  12    -0.278857870298E+02   -0.10086E-02   -0.82963E-03 17126   0.503E-01    0.539E-02
RMM:  13    -0.278864604376E+02   -0.67341E-03   -0.43803E-03 17411   0.317E-01    0.227E-02
RMM:  14    -0.278867480697E+02   -0.28763E-03   -0.24579E-03 16491   0.215E-01    0.253E-02
RMM:  15    -0.278868785445E+02   -0.13047E-03   -0.11785E-03 15072   0.149E-01    0.200E-02
RMM:  16    -0.278869517027E+02   -0.73158E-04   -0.66886E-04 14957   0.111E-01    0.274E-02
RMM:  17    -0.278869863230E+02   -0.34620E-04   -0.38695E-04 14628   0.904E-02    0.198E-02
RMM:  18    -0.278870107995E+02   -0.24477E-04   -0.24256E-04 12866   0.690E-02    0.181E-02
RMM:  19    -0.278870266256E+02   -0.15826E-04   -0.16842E-04 13046   0.589E-02    0.171E-02
RMM:  20    -0.278870374595E+02   -0.10834E-04   -0.10727E-04 11558   0.496E-02    0.176E-02
RMM:  21    -0.278870444167E+02   -0.69571E-05   -0.75098E-05 11122   0.444E-02
   1 F= -.27887044E+02 E0= -.27887044E+02  d E =0.000000E+00  mag=    -0.0001
