       N       E                     dE             d eps       ncg     rms          rms(c)
DAV:   1     0.449190060602E+02    0.44919E+02   -0.52267E+03  4624   0.765E+02
DAV:   2    -0.103085380616E+02   -0.55228E+02   -0.52607E+02  6216   0.189E+02
DAV:   3    -0.152182809744E+02   -0.49097E+01   -0.48779E+01  7400   0.403E+01
DAV:   4    -0.152868830556E+02   -0.68602E-01   -0.68583E-01  5176   0.606E+00
DAV:   5    -0.152877227409E+02   -0.83969E-03   -0.83968E-03  6504   0.481E-01    0.116E+01
RMM:   6    -0.142053638732E+02    0.10824E+01   -0.21223E+00  5109   0.810E+00    0.505E+00
RMM:   7    -0.142950761877E+02   -0.89712E-01   -0.74831E-02  5701   0.182E+00    0.199E+00
RMM:   8    -0.142922050639E+02    0.28711E-02   -0.39985E-02  6249   0.162E+00    0.117E+00
RMM:   9    -0.143057667888E+02   -0.13562E-01   -0.23852E-02  6448   0.137E+00    0.247E-01
RMM:  10    -0.143061993063E+02   -0.43252E-03   -0.38960E-03  7158   0.452E-01    0.150E-01
RMM:  11    -0.143072321836E+02   -0.10329E-02   -0.42343E-03  6563   0.434E-01    0.233E-01
RMM:  12    -0.143067571131E+02    0.47507E-03   -0.98582E-04  6836   0.230E-01    0.925E-02
RMM:  13    -0.143067115131E+02    0.45600E-04   -0.52754E-04  7059   0.165E-01    0.164E-02
RMM:  14    -0.143067377659E+02   -0.26253E-04   -0.18849E-04  6711   0.854E-02    0.154E-02
RMM:  15    -0.143067492304E+02   -0.11464E-04   -0.77961E-05  5928   0.508E-02    0.209E-02
RMM:  16    -0.143067512171E+02   -0.19868E-05   -0.32768E-05  5964   0.373E-02
   1 F= -.14306751E+02 E0= -.14306751E+02  d E =0.000000E+00  mag=    -0.0000
