   14   14    1    2
  0.1275897E+02  0.9088749E-09  0.8598368E-09  0.4853965E-09  0.5000000E-15
  1.000000000000000E-004
  CAR 
 unknown system                          
     80     64     52
 
  0.0000000E+00  0.0000000E+00  0.0000000E+00  0.2915452E-02
    1      -22.164257    -22.164360   1.000000   1.000000
    2      -21.418223    -21.418336   1.000000   1.000000
    3      -20.638316    -20.638458   1.000000   1.000000
    4      -19.240717    -19.240916   1.000000   1.000000
    5      -19.231080    -19.231279   1.000000   1.000000
    6      -19.147366    -19.147584   1.000000   1.000000
    7      -17.627074    -17.627124   1.000000   1.000000
    8      -17.199009    -17.199116   1.000000   1.000000
    9      -17.145231    -17.145331   1.000000   1.000000
   10      -17.135230    -17.135334   1.000000   1.000000
   11      -12.483837    -12.483835   1.000000   1.000000
   12      -10.829684    -10.829716   1.000000   1.000000
   13       -8.752949     -8.753014   1.000000   1.000000
   14       -7.549630     -7.549713   1.000000   1.000000
   15       -7.357130     -7.357209   1.000000   1.000000
   16       -7.109186     -7.109281   1.000000   1.000000
   17       -5.313063     -5.313178   1.000000   1.000000
   18       -5.173342     -5.173458   1.000000   1.000000
   19       -4.705176     -4.705304   1.000000   1.000000
   20       -3.827095     -3.827241   1.000000   1.000000
   21       -3.765059     -3.765193   1.000000   1.000000
   22       -3.633335     -3.633490   1.000000   1.000000
   23       -3.514898     -3.515058   1.000000   1.000000
   24       -3.509629     -3.509780   1.000000   1.000000
   25       -3.009462     -3.009612   1.000000   1.000000
   26       -2.852190     -2.852372   1.000000   1.000000
   27       -1.988274     -1.988419   1.000000   1.000000
   28       -1.700659     -1.700846   1.000000   1.000000
   29       -1.573931     -1.574113   1.000000   1.000000
   30       -1.413851     -1.414039   1.000000   1.000000
   31       -1.331499     -1.331679   1.000000   1.000000
   32       -0.953414     -0.953610   1.000000   1.000000
   33       -0.340800     -0.340943   1.000000   1.000000
   34       -0.328638     -0.328764   1.000000   1.000000
   35       -0.221627     -0.221728   1.000000   1.000000
   36       -0.113029     -0.113191   1.000000   1.000000
   37       -0.074397     -0.074496   1.000000   1.000000
   38        0.108454      0.108308   1.000000   1.000000
   39        0.109032      0.108838   1.000000   1.000000
   40        0.243551      0.243365   1.000000   1.000000
   41        6.203884      6.204072   0.000001   0.000000
   42        7.684781      7.685243   0.000000   0.000000
   43        8.167146      8.167237   0.000000   0.000000
   44        8.214542      8.214704   0.000000   0.000000
   45        8.680183      8.680336   0.000000   0.000000
   46        9.187077      9.187255   0.000000   0.000000
   47        9.471926      9.471854   0.000000   0.000000
   48        9.785339      9.785296   0.000000   0.000000
   49        9.810333      9.810765   0.000000   0.000000
   50       10.043605     10.037568   0.000000   0.000000
   51       10.697520     10.695425   0.000000   0.000000
   52       11.226574     11.012613   0.000000   0.000000
 
  0.1428571E+00 -0.1437047E-16  0.4543310E-14  0.2332362E-01
    1      -22.125520    -22.125623   1.000000   1.000000
    2      -21.401983    -21.402096   1.000000   1.000000
    3      -20.654199    -20.654339   1.000000   1.000000
    4      -19.343273    -19.343463   1.000000   1.000000
    5      -19.234636    -19.234834   1.000000   1.000000
    6      -19.158201    -19.158418   1.000000   1.000000
    7      -17.576133    -17.576192   1.000000   1.000000
    8      -17.203764    -17.203869   1.000000   1.000000
    9      -17.159362    -17.159462   1.000000   1.000000
   10      -17.139398    -17.139502   1.000000   1.000000
   11      -12.383280    -12.383280   1.000000   1.000000
   12      -10.762205    -10.762239   1.000000   1.000000
   13       -8.867416     -8.867478   1.000000   1.000000
   14       -7.624252     -7.624333   1.000000   1.000000
   15       -7.267807     -7.267891   1.000000   1.000000
   16       -7.084941     -7.085036   1.000000   1.000000
   17       -5.240084     -5.240202   1.000000   1.000000
   18       -5.106430     -5.106547   1.000000   1.000000
   19       -4.699422     -4.699548   1.000000   1.000000
   20       -3.975886     -3.976019   1.000000   1.000000
   21       -3.747143     -3.747288   1.000000   1.000000
   22       -3.673396     -3.673548   1.000000   1.000000
   23       -3.471496     -3.471656   1.000000   1.000000
   24       -3.429322     -3.429480   1.000000   1.000000
   25       -2.968817     -2.968975   1.000000   1.000000
   26       -2.913493     -2.913664   1.000000   1.000000
   27       -1.999824     -1.999968   1.000000   1.000000
   28       -1.759272     -1.759450   1.000000   1.000000
   29       -1.655556     -1.655738   1.000000   1.000000
   30       -1.509932     -1.510113   1.000000   1.000000
   31       -1.386240     -1.386423   1.000000   1.000000
   32       -1.003661     -1.003863   1.000000   1.000000
   33       -0.317808     -0.317930   1.000000   1.000000
   34       -0.293280     -0.293428   1.000000   1.000000
   35       -0.194870     -0.194976   1.000000   1.000000
   36       -0.118643     -0.118782   1.000000   1.000000
   37       -0.053156     -0.053273   1.000000   1.000000
   38        0.063098      0.062913   1.000000   1.000000
   39        0.119772      0.119628   1.000000   1.000000
   40        0.211482      0.211297   1.000000   1.000000
   41        6.439996      6.440158  -0.000000  -0.000000
   42        7.757777      7.758192   0.000000   0.000000
   43        8.309915      8.310047   0.000000   0.000000
   44        8.355954      8.356092   0.000000   0.000000
   45        8.762733      8.762888   0.000000   0.000000
   46        9.188580      9.188711   0.000000   0.000000
   47        9.475947      9.476087   0.000000   0.000000
   48        9.656816      9.657005   0.000000   0.000000
   49        9.869487      9.867386   0.000000   0.000000
   50       10.100306     10.093473   0.000000   0.000000
   51       10.595724     10.594770   0.000000   0.000000
   52       11.037185     10.973913   0.000000   0.000000
 
  0.2857143E+00  0.1083644E-16 -0.5139482E-14  0.2332362E-01
    1      -22.032275    -22.032381   1.000000   1.000000
    2      -21.348713    -21.348829   1.000000   1.000000
    3      -20.718929    -20.719064   1.000000   1.000000
    4      -19.561505    -19.561683   1.000000   1.000000
    5      -19.235608    -19.235807   1.000000   1.000000
    6      -19.168993    -19.169208   1.000000   1.000000
    7      -17.493206    -17.493280   1.000000   1.000000
    8      -17.214942    -17.215042   1.000000   1.000000
    9      -17.187800    -17.187903   1.000000   1.000000
   10      -17.146386    -17.146489   1.000000   1.000000
   11      -12.155000    -12.155004   1.000000   1.000000
   12      -10.560869    -10.560905   1.000000   1.000000
   13       -9.167263     -9.167318   1.000000   1.000000
   14       -7.729509     -7.729589   1.000000   1.000000
   15       -7.156053     -7.156142   1.000000   1.000000
   16       -6.999659     -6.999755   1.000000   1.000000
   17       -5.061165     -5.061288   1.000000   1.000000
   18       -4.930233     -4.930352   1.000000   1.000000
   19       -4.679540     -4.679662   1.000000   1.000000
   20       -4.131409     -4.131535   1.000000   1.000000
   21       -3.931139     -3.931279   1.000000   1.000000
   22       -3.742352     -3.742503   1.000000   1.000000
   23       -3.400710     -3.400874   1.000000   1.000000
   24       -3.282753     -3.282920   1.000000   1.000000
   25       -3.095103     -3.095273   1.000000   1.000000
   26       -2.777799     -2.777952   1.000000   1.000000
   27       -2.105168     -2.105319   1.000000   1.000000
   28       -1.931730     -1.931888   1.000000   1.000000
   29       -1.807113     -1.807289   1.000000   1.000000
   30       -1.681747     -1.681926   1.000000   1.000000
   31       -1.483881     -1.484060   1.000000   1.000000
   32       -1.101650     -1.101852   1.000000   1.000000
   33       -0.285401     -0.285523   1.000000   1.000000
   34       -0.244165     -0.244312   1.000000   1.000000
   35       -0.154708     -0.154833   1.000000   1.000000
   36       -0.118537     -0.118680   1.000000   1.000000
   37       -0.056531     -0.056679   1.000000   1.000000
   38        0.064085      0.063952   1.000000   1.000000
   39        0.126521      0.126363   1.000000   1.000000
   40        0.173077      0.172913   1.000000   1.000000
   41        6.916732      6.916837   0.000000   0.000000
   42        8.012844      8.013177   0.000000   0.000000
   43        8.563117      8.563294   0.000000   0.000000
   44        8.661251      8.661366   0.000000   0.000000
   45        8.938108      8.938247   0.000000   0.000000
   46        9.218656      9.218730   0.000000   0.000000
   47        9.516715      9.517029   0.000000   0.000000
   48        9.597356      9.597476   0.000000   0.000000
   49        9.946394      9.946360   0.000000   0.000000
   50       10.225384     10.211741   0.000000   0.000000
   51       10.354238     10.338423   0.000000   0.000000
   52       11.025534     10.945757   0.000000   0.000000
 
  0.4285714E+00  0.2475593E-16 -0.5362482E-15  0.2332362E-01
    1      -21.951173    -21.951280   1.000000   1.000000
    2      -21.265787    -21.265907   1.000000   1.000000
    3      -20.828500    -20.828627   1.000000   1.000000
    4      -19.708184    -19.708356   1.000000   1.000000
    5      -19.236293    -19.236491   1.000000   1.000000
    6      -19.176098    -19.176313   1.000000   1.000000
    7      -17.452006    -17.452086   1.000000   1.000000
    8      -17.236698    -17.236796   1.000000   1.000000
    9      -17.184592    -17.184694   1.000000   1.000000
   10      -17.157427    -17.157531   1.000000   1.000000
   11      -11.971708    -11.971716   1.000000   1.000000
   12      -10.274704    -10.274742   1.000000   1.000000
   13       -9.524270     -9.524320   1.000000   1.000000
   14       -7.795373     -7.795451   1.000000   1.000000
   15       -7.098156     -7.098248   1.000000   1.000000
   16       -6.913593     -6.913692   1.000000   1.000000
   17       -4.867703     -4.867828   1.000000   1.000000
   18       -4.791259     -4.791386   1.000000   1.000000
   19       -4.594252     -4.594373   1.000000   1.000000
   20       -4.295885     -4.296007   1.000000   1.000000
   21       -4.076585     -4.076714   1.000000   1.000000
   22       -3.844901     -3.845048   1.000000   1.000000
   23       -3.457802     -3.457961   1.000000   1.000000
   24       -3.271989     -3.272159   1.000000   1.000000
   25       -3.038458     -3.038637   1.000000   1.000000
   26       -2.578409     -2.578552   1.000000   1.000000
   27       -2.282428     -2.282585   1.000000   1.000000
   28       -2.088705     -2.088874   1.000000   1.000000
   29       -1.946469     -1.946641   1.000000   1.000000
   30       -1.712034     -1.712200   1.000000   1.000000
   31       -1.605210     -1.605381   1.000000   1.000000
   32       -1.157317     -1.157514   1.000000   1.000000
   33       -0.344207     -0.344338   1.000000   1.000000
   34       -0.202682     -0.202821   1.000000   1.000000
   35       -0.158490     -0.158648   1.000000   1.000000
   36       -0.116038     -0.116177   1.000000   1.000000
   37       -0.001581     -0.001711   1.000000   1.000000
   38        0.055572      0.055427   1.000000   1.000000
   39        0.151951      0.151814   1.000000   1.000000
   40        0.192186      0.192023   1.000000   1.000000
   41        7.211396      7.211487   0.000000   0.000000
   42        8.447361      8.447484   0.000000   0.000000
   43        8.674516      8.674625   0.000000   0.000000
   44        8.805371      8.805465   0.000000   0.000000
   45        9.009786      9.009752   0.000000   0.000000
   46        9.367884      9.367709   0.000000   0.000000
   47        9.495246      9.493902   0.000000   0.000000
   48        9.742260      9.740843   0.000000   0.000000
   49       10.078423     10.079063   0.000000   0.000000
   50       10.150453     10.114846   0.000000   0.000000
   51       10.587144     10.343259   0.000000   0.000000
   52       10.946821     10.865116   0.000000   0.000000
 
  0.1428571E+00  0.1428571E+00  0.2204968E-16  0.5830904E-02
    1      -22.142314    -22.142417   1.000000   1.000000
    2      -21.498686    -21.498798   1.000000   1.000000
    3      -20.530288    -20.530432   1.000000   1.000000
    4      -19.247895    -19.248097   1.000000   1.000000
    5      -19.231358    -19.231556   1.000000   1.000000
    6      -19.215201    -19.215409   1.000000   1.000000
    7      -17.591099    -17.591157   1.000000   1.000000
    8      -17.215734    -17.215838   1.000000   1.000000
    9      -17.140897    -17.140998   1.000000   1.000000
   10      -17.134750    -17.134854   1.000000   1.000000
   11      -12.421595    -12.421594   1.000000   1.000000
   12      -10.955635    -10.955665   1.000000   1.000000
   13       -8.643632     -8.643699   1.000000   1.000000
   14       -7.580600     -7.580682   1.000000   1.000000
   15       -7.346063     -7.346143   1.000000   1.000000
   16       -7.126532     -7.126626   1.000000   1.000000
   17       -5.320596     -5.320711   1.000000   1.000000
   18       -5.204194     -5.204310   1.000000   1.000000
   19       -4.661960     -4.662088   1.000000   1.000000
   20       -3.788118     -3.788265   1.000000   1.000000
   21       -3.780707     -3.780849   1.000000   1.000000
   22       -3.705551     -3.705693   1.000000   1.000000
   23       -3.505319     -3.505471   1.000000   1.000000
   24       -3.490883     -3.491046   1.000000   1.000000
   25       -2.961471     -2.961626   1.000000   1.000000
   26       -2.858681     -2.858862   1.000000   1.000000
   27       -1.996059     -1.996205   1.000000   1.000000
   28       -1.770331     -1.770512   1.000000   1.000000
   29       -1.510566     -1.510750   1.000000   1.000000
   30       -1.404422     -1.404610   1.000000   1.000000
   31       -1.327495     -1.327677   1.000000   1.000000
   32       -0.969794     -0.969991   1.000000   1.000000
   33       -0.355897     -0.356036   1.000000   1.000000
   34       -0.327523     -0.327647   1.000000   1.000000
   35       -0.235786     -0.235887   1.000000   1.000000
   36       -0.168016     -0.168151   1.000000   1.000000
   37       -0.035077     -0.035203   1.000000   1.000000
   38        0.105295      0.105129   1.000000   1.000000
   39        0.124454      0.124281   1.000000   1.000000
   40        0.241159      0.240973   1.000000   1.000000
   41        6.300001      6.300185   0.000000   0.000000
   42        7.723175      7.723624   0.000000   0.000000
   43        8.067581      8.067638   0.000000   0.000000
   44        8.238463      8.238615   0.000000   0.000000
   45        8.733798      8.733970   0.000000   0.000000
   46        9.126383      9.125643   0.000000   0.000000
   47        9.462208      9.462570   0.000000   0.000000
   48        9.674248      9.674505   0.000000   0.000000
   49        9.786024      9.781808   0.000000   0.000000
   50       10.212019     10.178147   0.000000   0.000000
   51       10.626309     10.624465   0.000000   0.000000
   52       11.093492     11.027221   0.000000   0.000000
 
  0.2857143E+00  0.1428571E+00  0.1010713E-14  0.2332362E-01
    1      -22.082842    -22.082946   1.000000   1.000000
    2      -21.542507    -21.542619   1.000000   1.000000
    3      -20.463837    -20.463981   1.000000   1.000000
    4      -19.432532    -19.432719   1.000000   1.000000
    5      -19.234834    -19.235033   1.000000   1.000000
    6      -19.197623    -19.197832   1.000000   1.000000
    7      -17.521475    -17.521544   1.000000   1.000000
    8      -17.233930    -17.234031   1.000000   1.000000
    9      -17.153404    -17.153506   1.000000   1.000000
   10      -17.137346    -17.137450   1.000000   1.000000
   11      -12.263748    -12.263750   1.000000   1.000000
   12      -11.000044    -11.000073   1.000000   1.000000
   13       -8.664540     -8.664606   1.000000   1.000000
   14       -7.692220     -7.692300   1.000000   1.000000
   15       -7.257888     -7.257972   1.000000   1.000000
   16       -7.096517     -7.096611   1.000000   1.000000
   17       -5.253256     -5.253373   1.000000   1.000000
   18       -5.157263     -5.157379   1.000000   1.000000
   19       -4.619617     -4.619743   1.000000   1.000000
   20       -3.971165     -3.971302   1.000000   1.000000
   21       -3.823466     -3.823605   1.000000   1.000000
   22       -3.664022     -3.664172   1.000000   1.000000
   23       -3.456700     -3.456862   1.000000   1.000000
   24       -3.418632     -3.418793   1.000000   1.000000
   25       -2.969157     -2.969320   1.000000   1.000000
   26       -2.838727     -2.838898   1.000000   1.000000
   27       -2.032829     -2.032973   1.000000   1.000000
   28       -1.874305     -1.874474   1.000000   1.000000
   29       -1.560379     -1.560562   1.000000   1.000000
   30       -1.479564     -1.479747   1.000000   1.000000
   31       -1.379172     -1.379357   1.000000   1.000000
   32       -1.037500     -1.037702   1.000000   1.000000
   33       -0.333990     -0.334117   1.000000   1.000000
   34       -0.301820     -0.301952   1.000000   1.000000
   35       -0.212407     -0.212514   1.000000   1.000000
   36       -0.180354     -0.180484   1.000000   1.000000
   37       -0.009431     -0.009563   1.000000   1.000000
   38        0.076531      0.076355   1.000000   1.000000
   39        0.125187      0.125036   1.000000   1.000000
   40        0.208851      0.208668   1.000000   1.000000
   41        6.612930      6.613086   0.000000   0.000000
   42        7.805029      7.805379   0.000000   0.000000
   43        8.157668      8.157836   0.000000   0.000000
   44        8.389169      8.389344   0.000000   0.000000
   45        8.865178      8.865379   0.000000   0.000000
   46        9.104060      9.104162   0.000000   0.000000
   47        9.438674      9.438676   0.000000   0.000000
   48        9.527374      9.529373   0.000000   0.000000
   49        9.826471      9.825662   0.000000   0.000000
   50       10.239807     10.276066   0.000000   0.000000
   51       10.483806     10.518344   0.000000   0.000000
   52       11.099760     11.011873   0.000000   0.000000
 
  0.4285714E+00  0.1428571E+00 -0.5053187E-14  0.2332362E-01
    1      -21.980980    -21.981086   1.000000   1.000000
    2      -21.513360    -21.513473   1.000000   1.000000
    3      -20.507600    -20.507740   1.000000   1.000000
    4      -19.663213    -19.663386   1.000000   1.000000
    5      -19.235648    -19.235847   1.000000   1.000000
    6      -19.189964    -19.190176   1.000000   1.000000
    7      -17.451131    -17.451210   1.000000   1.000000
    8      -17.242841    -17.242939   1.000000   1.000000
    9      -17.184634    -17.184736   1.000000   1.000000
   10      -17.142669    -17.142772   1.000000   1.000000
   11      -12.019016    -12.019024   1.000000   1.000000
   12      -10.861495    -10.861525   1.000000   1.000000
   13       -8.919545     -8.919604   1.000000   1.000000
   14       -7.805473     -7.805552   1.000000   1.000000
   15       -7.170760     -7.170849   1.000000   1.000000
   16       -6.976806     -6.976903   1.000000   1.000000
   17       -5.082982     -5.083103   1.000000   1.000000
   18       -4.976264     -4.976386   1.000000   1.000000
   19       -4.574754     -4.574876   1.000000   1.000000
   20       -4.152112     -4.152241   1.000000   1.000000
   21       -3.997843     -3.997975   1.000000   1.000000
   22       -3.705581     -3.705734   1.000000   1.000000
   23       -3.413588     -3.413754   1.000000   1.000000
   24       -3.334116     -3.334280   1.000000   1.000000
   25       -3.009051     -3.009220   1.000000   1.000000
   26       -2.707244     -2.707407   1.000000   1.000000
   27       -2.229623     -2.229765   1.000000   1.000000
   28       -1.951182     -1.951339   1.000000   1.000000
   29       -1.775654     -1.775830   1.000000   1.000000
   30       -1.645177     -1.645357   1.000000   1.000000
   31       -1.465355     -1.465536   1.000000   1.000000
   32       -1.128352     -1.128553   1.000000   1.000000
   33       -0.322327     -0.322451   1.000000   1.000000
   34       -0.244443     -0.244576   1.000000   1.000000
   35       -0.163330     -0.163459   1.000000   1.000000
   36       -0.103796     -0.103934   1.000000   1.000000
   37       -0.063311     -0.063463   1.000000   1.000000
   38        0.062500      0.062368   1.000000   1.000000
   39        0.128489      0.128324   1.000000   1.000000
   40        0.183937      0.183778   1.000000   1.000000
   41        7.087174      7.087276   0.000000   0.000000
   42        8.048380      8.048661   0.000000   0.000000
   43        8.469066      8.469305   0.000000   0.000000
   44        8.682253      8.682609   0.000000   0.000000
   45        8.993826      8.994056   0.000000   0.000000
   46        9.214461      9.215933   0.000000   0.000000
   47        9.375950      9.375866   0.000000   0.000000
   48        9.552181      9.552616   0.000000   0.000000
   49        9.931699      9.929698   0.000000   0.000000
   50       10.184480     10.202402   0.000000   0.000000
   51       10.350927     10.391237   0.000000   0.000000
   52       11.005697     11.054215   0.000000   0.000000
 
 -0.4285714E+00  0.1428571E+00 -0.4046309E-14  0.2332362E-01
    1      -21.929585    -21.929693   1.000000   1.000000
    2      -21.361478    -21.361596   1.000000   1.000000
    3      -20.718383    -20.718513   1.000000   1.000000
    4      -19.745155    -19.745326   1.000000   1.000000
    5      -19.236263    -19.236461   1.000000   1.000000
    6      -19.182757    -19.182971   1.000000   1.000000
    7      -17.439063    -17.439146   1.000000   1.000000
    8      -17.242073    -17.242170   1.000000   1.000000
    9      -17.189244    -17.189346   1.000000   1.000000
   10      -17.154038    -17.154142   1.000000   1.000000
   11      -11.917559    -11.917569   1.000000   1.000000
   12      -10.464928    -10.464962   1.000000   1.000000
   13       -9.358170     -9.358223   1.000000   1.000000
   14       -7.823929     -7.824008   1.000000   1.000000
   15       -7.106837     -7.106928   1.000000   1.000000
   16       -6.900456     -6.900555   1.000000   1.000000
   17       -4.892062     -4.892185   1.000000   1.000000
   18       -4.799600     -4.799729   1.000000   1.000000
   19       -4.516827     -4.516949   1.000000   1.000000
   20       -4.328537     -4.328659   1.000000   1.000000
   21       -4.110506     -4.110633   1.000000   1.000000
   22       -3.832150     -3.832296   1.000000   1.000000
   23       -3.458945     -3.459108   1.000000   1.000000
   24       -3.291198     -3.291364   1.000000   1.000000
   25       -2.995424     -2.995604   1.000000   1.000000
   26       -2.533632     -2.533777   1.000000   1.000000
   27       -2.377100     -2.377252   1.000000   1.000000
   28       -2.073508     -2.073676   1.000000   1.000000
   29       -1.919827     -1.920004   1.000000   1.000000
   30       -1.734072     -1.734236   1.000000   1.000000
   31       -1.584674     -1.584847   1.000000   1.000000
   32       -1.164006     -1.164203   1.000000   1.000000
   33       -0.362348     -0.362476   1.000000   1.000000
   34       -0.195239     -0.195377   1.000000   1.000000
   35       -0.147085     -0.147247   1.000000   1.000000
   36       -0.112875     -0.113016   1.000000   1.000000
   37       -0.009288     -0.009416   1.000000   1.000000
   38        0.037677      0.037537   1.000000   1.000000
   39        0.161459      0.161319   1.000000   1.000000
   40        0.196286      0.196124   1.000000   1.000000
   41        7.271035      7.271127   0.000000   0.000000
   42        8.470963      8.471078   0.000000   0.000000
   43        8.681912      8.682115   0.000000   0.000000
   44        8.846154      8.846412   0.000000   0.000000
   45        8.936422      8.936551   0.000000   0.000000
   46        9.282830      9.283166   0.000000   0.000000
   47        9.593323      9.588239   0.000000   0.000000
   48        9.747787      9.745979   0.000000   0.000000
   49        9.973268      9.975850   0.000000   0.000000
   50       10.097705     10.190475   0.000000   0.000000
   51       10.770372     10.413785   0.000000   0.000000
   52       10.874169     10.844207   0.000000   0.000000
 
 -0.2857143E+00  0.1428571E+00  0.5392759E-15  0.2332362E-01
    1      -21.966418    -21.966525   1.000000   1.000000
    2      -21.138331    -21.138455   1.000000   1.000000
    3      -20.966814    -20.966938   1.000000   1.000000
    4      -19.681581    -19.681753   1.000000   1.000000
    5      -19.236237    -19.236435   1.000000   1.000000
    6      -19.170443    -19.170658   1.000000   1.000000
    7      -17.461833    -17.461912   1.000000   1.000000
    8      -17.234311    -17.234409   1.000000   1.000000
    9      -17.175977    -17.176081   1.000000   1.000000
   10      -17.163692    -17.163795   1.000000   1.000000
   11      -12.010913    -12.010920   1.000000   1.000000
   12      -10.023664    -10.023707   1.000000   1.000000
   13       -9.758437     -9.758484   1.000000   1.000000
   14       -7.775388     -7.775467   1.000000   1.000000
   15       -7.085644     -7.085737   1.000000   1.000000
   16       -6.928453     -6.928552   1.000000   1.000000
   17       -4.847850     -4.847979   1.000000   1.000000
   18       -4.776038     -4.776161   1.000000   1.000000
   19       -4.648020     -4.648141   1.000000   1.000000
   20       -4.296045     -4.296166   1.000000   1.000000
   21       -4.009212     -4.009345   1.000000   1.000000
   22       -3.905351     -3.905495   1.000000   1.000000
   23       -3.388012     -3.388175   1.000000   1.000000
   24       -3.303733     -3.303899   1.000000   1.000000
   25       -3.074085     -3.074263   1.000000   1.000000
   26       -2.604326     -2.604467   1.000000   1.000000
   27       -2.231177     -2.231340   1.000000   1.000000
   28       -2.056019     -2.056187   1.000000   1.000000
   29       -1.992660     -1.992829   1.000000   1.000000
   30       -1.695985     -1.696153   1.000000   1.000000
   31       -1.624800     -1.624969   1.000000   1.000000
   32       -1.155071     -1.155268   1.000000   1.000000
   33       -0.320134     -0.320269   1.000000   1.000000
   34       -0.214782     -0.214919   1.000000   1.000000
   35       -0.172123     -0.172273   1.000000   1.000000
   36       -0.120887     -0.121031   1.000000   1.000000
   37        0.021946      0.021817   1.000000   1.000000
   38        0.056603      0.056452   1.000000   1.000000
   39        0.146603      0.146471   1.000000   1.000000
   40        0.187081      0.186916   1.000000   1.000000
   41        7.170495      7.170585   0.000000   0.000000
   42        8.426118      8.426119   0.000000   0.000000
   43        8.648653      8.648784   0.000000   0.000000
   44        8.845761      8.845330   0.000000   0.000000
   45        8.989421      8.989475   0.000000   0.000000
   46        9.261405      9.261433   0.000000   0.000000
   47        9.656341      9.650525   0.000000   0.000000
   48        9.822091      9.808459   0.000000   0.000000
   49       10.068279     10.064364   0.000000   0.000000
   50       10.192347     10.174161   0.000000   0.000000
   51       10.711241     10.358503   0.000000   0.000000
   52       10.930651     10.756814   0.000000   0.000000
 
 -0.1428571E+00  0.1428571E+00  0.1575359E-14  0.1166181E-01
    1      -22.050460    -22.050565   1.000000   1.000000
    2      -21.249101    -21.249217   1.000000   1.000000
    3      -20.836008    -20.836142   1.000000   1.000000
    4      -19.526172    -19.526351   1.000000   1.000000
    5      -19.235574    -19.235773   1.000000   1.000000
    6      -19.157410    -19.157628   1.000000   1.000000
    7      -17.510547    -17.510618   1.000000   1.000000
    8      -17.200535    -17.200634   1.000000   1.000000
    9      -17.192395    -17.192500   1.000000   1.000000
   10      -17.148682    -17.148785   1.000000   1.000000
   11      -12.204703    -12.204705   1.000000   1.000000
   12      -10.412287    -10.412327   1.000000   1.000000
   13       -9.297960     -9.298013   1.000000   1.000000
   14       -7.701820     -7.701899   1.000000   1.000000
   15       -7.144849     -7.144938   1.000000   1.000000
   16       -7.013529     -7.013626   1.000000   1.000000
   17       -5.052294     -5.052418   1.000000   1.000000
   18       -4.897679     -4.897798   1.000000   1.000000
   19       -4.728782     -4.728905   1.000000   1.000000
   20       -4.145747     -4.145871   1.000000   1.000000
   21       -3.858785     -3.858931   1.000000   1.000000
   22       -3.788162     -3.788307   1.000000   1.000000
   23       -3.395882     -3.396044   1.000000   1.000000
   24       -3.237718     -3.237886   1.000000   1.000000
   25       -3.143195     -3.143366   1.000000   1.000000
   26       -2.814681     -2.814828   1.000000   1.000000
   27       -2.010222     -2.010370   1.000000   1.000000
   28       -1.989474     -1.989640   1.000000   1.000000
   29       -1.764695     -1.764870   1.000000   1.000000
   30       -1.730898     -1.731075   1.000000   1.000000
   31       -1.490332     -1.490510   1.000000   1.000000
   32       -1.093268     -1.093469   1.000000   1.000000
   33       -0.269764     -0.269886   1.000000   1.000000
   34       -0.223362     -0.223519   1.000000   1.000000
   35       -0.177530     -0.177655   1.000000   1.000000