   3   3   1   0
  0.8426606E+01  0.3294299E-09  0.3294299E-09  0.3294299E-09  0.5000000E-15
  1.000000000000000E-004
  CAR 
 unknown system                          
     54.36440182    -46.25818822  301      1.45368989      1.00000000
    -46.258  0.0000E+00  0.0000E+00  0.0000E+00  0.0000E+00
    -45.923  0.0000E+00  0.0000E+00  0.0000E+00  0.0000E+00
    -45.587  0.0000E+00  0.0000E+00  0.0000E+00  0.0000E+00
    -45.252  0.0000E+00  0.0000E+00  0.0000E+00  0.0000E+00
    -44.917  0.0000E+00  0.0000E+00  0.0000E+00  0.0000E+00
    -44.581  0.0000E+00  0.0000E+00  0.0000E+00  0.0000E+00
    -44.246  0.0000E+00  0.0000E+00  0.0000E+00  0.0000E+00
    -43.910  0.0000E+00  0.0000E+00  0.0000E+00  0.0000E+00
    -43.575  0.0000E+00  0.0000E+00  0.0000E+00  0.0000E+00
    -43.240  0.0000E+00  0.0000E+00  0.0000E+00  0.0000E+00
    -42.904  0.0000E+00  0.0000E+00  0.0000E+00  0.0000E+00
    -42.569  0.0000E+00  0.0000E+00  0.0000E+00  0.0000E+00
    -42.233  0.0000E+00  0.0000E+00  0.0000E+00  0.0000E+00
    -41.898  0.0000E+00  0.0000E+00  0.0000E+00  0.0000E+00
    -41.562  0.7976E-01  0.7976E-01  0.4128E-02  0.4128E-02
    -41.227  0.0000E+00  0.0000E+00  0.2020E-01  0.2020E-01
    -40.892  0.0000E+00  0.0000E+00  0.2020E-01  0.2020E-01
    -40.556  0.0000E+00  0.0000E+00  0.2020E-01  0.2020E-01
    -40.221  0.0000E+00  0.0000E+00  0.2020E-01  0.2020E-01
    -39.885  0.0000E+00  0.0000E+00  0.2020E-01  0.2020E-01
    -39.550  0.0000E+00  0.0000E+00  0.2020E-01  0.2020E-01
    -39.215  0.0000E+00  0.0000E+00  0.2020E-01  0.2020E-01
    -38.879  0.0000E+00  0.0000E+00  0.2020E-01  0.2020E-01
    -38.544  0.0000E+00  0.0000E+00  0.2020E-01  0.2020E-01
    -38.208  0.0000E+00  0.0000E+00  0.2020E-01  0.2020E-01
    -37.873  0.0000E+00  0.0000E+00  0.2020E-01  0.2020E-01
    -37.538  0.0000E+00  0.0000E+00  0.2020E-01  0.2020E-01
    -37.202  0.0000E+00  0.0000E+00  0.2020E-01  0.2020E-01
    -36.867  0.0000E+00  0.0000E+00  0.2020E-01  0.2020E-01
    -36.531  0.0000E+00  0.0000E+00  0.2020E-01  0.2020E-01
    -36.196  0.0000E+00  0.0000E+00  0.2020E-01  0.2020E-01
    -35.861  0.0000E+00  0.0000E+00  0.2020E-01  0.2020E-01
    -35.525  0.0000E+00  0.0000E+00  0.2020E-01  0.2020E-01
    -35.190  0.0000E+00  0.0000E+00  0.2020E-01  0.2020E-01
    -34.854  0.0000E+00  0.0000E+00  0.2020E-01  0.2020E-01
    -34.519  0.0000E+00  0.0000E+00  0.2020E-01  0.2020E-01
    -34.183  0.0000E+00  0.0000E+00  0.2020E-01  0.2020E-01
    -33.848  0.0000E+00  0.0000E+00  0.2020E-01  0.2020E-01
    -33.513  0.0000E+00  0.0000E+00  0.2020E-01  0.2020E-01
    -33.177  0.0000E+00  0.0000E+00  0.2020E-01  0.2020E-01
    -32.842  0.0000E+00  0.0000E+00  0.2020E-01  0.2020E-01
    -32.506  0.0000E+00  0.0000E+00  0.2020E-01  0.2020E-01
    -32.171  0.0000E+00  0.0000E+00  0.2020E-01  0.2020E-01
    -31.836  0.0000E+00  0.0000E+00  0.2020E-01  0.2020E-01
    -31.500  0.0000E+00  0.0000E+00  0.2020E-01  0.2020E-01
    -31.165  0.0000E+00  0.0000E+00  0.2020E-01  0.2020E-01
    -30.829  0.0000E+00  0.0000E+00  0.2020E-01  0.2020E-01
    -30.494  0.0000E+00  0.0000E+00  0.2020E-01  0.2020E-01
    -30.159  0.0000E+00  0.0000E+00  0.2020E-01  0.2020E-01
    -29.823  0.0000E+00  0.0000E+00  0.2020E-01  0.2020E-01
    -29.488  0.0000E+00  0.0000E+00  0.2020E-01  0.2020E-01
    -29.152  0.0000E+00  0.0000E+00  0.2020E-01  0.2020E-01
    -28.817  0.0000E+00  0.0000E+00  0.2020E-01  0.2020E-01
    -28.482  0.0000E+00  0.0000E+00  0.2020E-01  0.2020E-01
    -28.146  0.0000E+00  0.0000E+00  0.2020E-01  0.2020E-01
    -27.811  0.0000E+00  0.0000E+00  0.2020E-01  0.2020E-01
    -27.475  0.0000E+00  0.0000E+00  0.2020E-01  0.2020E-01
    -27.140  0.0000E+00  0.0000E+00  0.2020E-01  0.2020E-01
    -26.804  0.0000E+00  0.0000E+00  0.2020E-01  0.2020E-01
    -26.469  0.0000E+00  0.0000E+00  0.2020E-01  0.2020E-01
    -26.134  0.0000E+00  0.0000E+00  0.2020E-01  0.2020E-01
    -25.798  0.0000E+00  0.0000E+00  0.2020E-01  0.2020E-01
    -25.463  0.0000E+00  0.0000E+00  0.2020E-01  0.2020E-01
    -25.127  0.0000E+00  0.0000E+00  0.2020E-01  0.2020E-01
    -24.792  0.0000E+00  0.0000E+00  0.2020E-01  0.2020E-01
    -24.457  0.0000E+00  0.0000E+00  0.2020E-01  0.2020E-01
    -24.121  0.0000E+00  0.0000E+00  0.2020E-01  0.2020E-01
    -23.786  0.0000E+00  0.0000E+00  0.2020E-01  0.2020E-01
    -23.450  0.0000E+00  0.0000E+00  0.2020E-01  0.2020E-01
    -23.115  0.0000E+00  0.0000E+00  0.2020E-01  0.2020E-01
    -22.780  0.0000E+00  0.0000E+00  0.2020E-01  0.2020E-01
    -22.444  0.0000E+00  0.0000E+00  0.2020E-01  0.2020E-01
    -22.109  0.0000E+00  0.0000E+00  0.2020E-01  0.2020E-01
    -21.773  0.0000E+00  0.0000E+00  0.2020E-01  0.2020E-01
    -21.438  0.0000E+00  0.0000E+00  0.2020E-01  0.2020E-01
    -21.103  0.0000E+00  0.0000E+00  0.2020E-01  0.2020E-01
    -20.767  0.0000E+00  0.0000E+00  0.2020E-01  0.2020E-01
    -20.432  0.0000E+00  0.0000E+00  0.2020E-01  0.2020E-01
    -20.096  0.0000E+00  0.0000E+00  0.2020E-01  0.2020E-01
    -19.761  0.0000E+00  0.0000E+00  0.2020E-01  0.2020E-01
    -19.425  0.0000E+00  0.0000E+00  0.2020E-01  0.2020E-01
    -19.090  0.0000E+00  0.0000E+00  0.2020E-01  0.2020E-01
    -18.755  0.0000E+00  0.0000E+00  0.2020E-01  0.2020E-01
    -18.419  0.0000E+00  0.0000E+00  0.2020E-01  0.2020E-01
    -18.084  0.0000E+00  0.0000E+00  0.2020E-01  0.2020E-01
    -17.748  0.0000E+00  0.0000E+00  0.2020E-01  0.2020E-01
    -17.413  0.0000E+00  0.0000E+00  0.2020E-01  0.2020E-01
    -17.078  0.0000E+00  0.0000E+00  0.2020E-01  0.2020E-01
    -16.742  0.0000E+00  0.0000E+00  0.2020E-01  0.2020E-01
    -16.407  0.0000E+00  0.0000E+00  0.2020E-01  0.2020E-01
    -16.071  0.0000E+00  0.0000E+00  0.2020E-01  0.2020E-01
    -15.736  0.0000E+00  0.0000E+00  0.2020E-01  0.2020E-01
    -15.401  0.0000E+00  0.0000E+00  0.2020E-01  0.2020E-01
    -15.065  0.0000E+00  0.0000E+00  0.2020E-01  0.2020E-01
    -14.730  0.0000E+00  0.0000E+00  0.2020E-01  0.2020E-01
    -14.394  0.0000E+00  0.0000E+00  0.2020E-01  0.2020E-01
    -14.059  0.8579E-02  0.8579E-02  0.2050E-01  0.2050E-01
    -13.724  0.0000E+00  0.0000E+00  0.3030E-01  0.3030E-01
    -13.388  0.0000E+00  0.0000E+00  0.3030E-01  0.3030E-01
    -13.053  0.0000E+00  0.0000E+00  0.3030E-01  0.3030E-01
    -12.717  0.0000E+00  0.0000E+00  0.3030E-01  0.3030E-01
    -12.382  0.0000E+00  0.0000E+00  0.3030E-01  0.3030E-01
    -12.047  0.0000E+00  0.0000E+00  0.3030E-01  0.3030E-01
    -11.711  0.0000E+00  0.0000E+00  0.3030E-01  0.3030E-01
    -11.376  0.0000E+00  0.0000E+00  0.3030E-01  0.3030E-01
    -11.040  0.0000E+00  0.0000E+00  0.3030E-01  0.3030E-01
    -10.705  0.0000E+00  0.0000E+00  0.3030E-01  0.3030E-01
    -10.369  0.0000E+00  0.0000E+00  0.3030E-01  0.3030E-01
    -10.034  0.0000E+00  0.0000E+00  0.3030E-01  0.3030E-01
     -9.699  0.0000E+00  0.0000E+00  0.3030E-01  0.3030E-01
     -9.363  0.0000E+00  0.0000E+00  0.3030E-01  0.3030E-01
     -9.028  0.0000E+00  0.0000E+00  0.3030E-01  0.3030E-01
     -8.692  0.0000E+00  0.0000E+00  0.3030E-01  0.3030E-01
     -8.357  0.0000E+00  0.0000E+00  0.3030E-01  0.3030E-01
     -8.022  0.0000E+00  0.0000E+00  0.3030E-01  0.3030E-01
     -7.686  0.0000E+00  0.0000E+00  0.3030E-01  0.3030E-01
     -7.351  0.0000E+00  0.0000E+00  0.3030E-01  0.3030E-01
     -7.015  0.0000E+00  0.0000E+00  0.3030E-01  0.3030E-01
     -6.680  0.0000E+00  0.0000E+00  0.3030E-01  0.3030E-01
     -6.345  0.0000E+00  0.0000E+00  0.3030E-01  0.3030E-01
     -6.009  0.0000E+00  0.0000E+00  0.3030E-01  0.3030E-01
     -5.674  0.0000E+00  0.0000E+00  0.3030E-01  0.3030E-01
     -5.338  0.0000E+00  0.0000E+00  0.3030E-01  0.3030E-01
     -5.003  0.0000E+00  0.0000E+00  0.3030E-01  0.3030E-01
     -4.668  0.0000E+00  0.0000E+00  0.3030E-01  0.3030E-01
     -4.332  0.0000E+00  0.0000E+00  0.3030E-01  0.3030E-01
     -3.997  0.0000E+00  0.0000E+00  0.3030E-01  0.3030E-01
     -3.661  0.0000E+00  0.0000E+00  0.3030E-01  0.3030E-01
     -3.326  0.0000E+00  0.0000E+00  0.3030E-01  0.3030E-01
     -2.990  0.0000E+00  0.0000E+00  0.3030E-01  0.3030E-01
     -2.655  0.0000E+00  0.0000E+00  0.3030E-01  0.3030E-01
     -2.320  0.0000E+00  0.0000E+00  0.3030E-01  0.3030E-01
     -1.984  0.0000E+00  0.0000E+00  0.3030E-01  0.3030E-01
     -1.649  0.0000E+00  0.0000E+00  0.3030E-01  0.3030E-01
     -1.313  0.2983E-02  0.2983E-02  0.3049E-01  0.3049E-01
     -0.978  0.9420E-02  0.9420E-02  0.3239E-01  0.3239E-01
     -0.643  0.1012E-01  0.1012E-01  0.3600E-01  0.3600E-01
     -0.307  0.6509E-02  0.6509E-02  0.3851E-01  0.3851E-01
      0.028  0.1948E-01  0.1948E-01  0.4223E-01  0.4223E-01
      0.364  0.1749E-01  0.1749E-01  0.4832E-01  0.4832E-01
      0.699  0.1733E-01  0.1733E-01  0.5418E-01  0.5418E-01
      1.034  0.9067E-02  0.9067E-02  0.5906E-01  0.5906E-01
      1.370  0.0000E+00  0.0000E+00  0.6061E-01  0.6061E-01
      1.705  0.0000E+00  0.0000E+00  0.6061E-01  0.6061E-01
      2.041  0.0000E+00  0.0000E+00  0.6061E-01  0.6061E-01
      2.376  0.0000E+00  0.0000E+00  0.6061E-01  0.6061E-01
      2.711  0.0000E+00  0.0000E+00  0.6061E-01  0.6061E-01
      3.047  0.0000E+00  0.0000E+00  0.6061E-01  0.6061E-01
      3.382  0.0000E+00  0.0000E+00  0.6061E-01  0.6061E-01
      3.718  0.0000E+00  0.0000E+00  0.6061E-01  0.6061E-01
      4.053  0.0000E+00  0.0000E+00  0.6061E-01  0.6061E-01
      4.389  0.0000E+00  0.0000E+00  0.6061E-01  0.6061E-01
      4.724  0.0000E+00  0.0000E+00  0.6061E-01  0.6061E-01
      5.059  0.0000E+00  0.0000E+00  0.6061E-01  0.6061E-01
      5.395  0.0000E+00  0.0000E+00  0.6061E-01  0.6061E-01
      5.730  0.0000E+00  0.0000E+00  0.6061E-01  0.6061E-01
      6.066  0.0000E+00  0.0000E+00  0.6061E-01  0.6061E-01
      6.401  0.1203E-03  0.1203E-03  0.6061E-01  0.6061E-01
      6.736  0.9550E-03  0.9550E-03  0.6079E-01  0.6079E-01
      7.072  0.1755E-02  0.1755E-02  0.6124E-01  0.6124E-01
      7.407  0.2926E-02  0.2926E-02  0.6200E-01  0.6200E-01
      7.743  0.3595E-02  0.3595E-02  0.6318E-01  0.6318E-01
      8.078  0.3779E-02  0.3779E-02  0.6443E-01  0.6443E-01
      8.413  0.4892E-02  0.4892E-02  0.6583E-01  0.6583E-01
      8.749  0.4892E-02  0.4892E-02  0.6742E-01  0.6742E-01
      9.084  0.4344E-02  0.4344E-02  0.6887E-01  0.6887E-01
      9.420  0.2041E-02  0.2041E-02  0.6992E-01  0.6992E-01
      9.755  0.1004E-02  0.1004E-02  0.7040E-01  0.7040E-01
     10.090  0.3759E-03  0.3759E-03  0.7066E-01  0.7066E-01
     10.426  0.1336E-04  0.1336E-04  0.7071E-01  0.7071E-01
     10.761  0.0000E+00  0.0000E+00  0.7071E-01  0.7071E-01
     11.097  0.0000E+00  0.0000E+00  0.7071E-01  0.7071E-01
     11.432  0.1812E-02  0.1812E-02  0.7094E-01  0.7094E-01
     11.768  0.7259E-02  0.7259E-02  0.7274E-01  0.7274E-01
     12.103  0.4355E-02  0.4355E-02  0.7455E-01  0.7455E-01
     12.438  0.3803E-02  0.3803E-02  0.7590E-01  0.7590E-01
     12.774  0.3659E-02  0.3659E-02  0.7714E-01  0.7714E-01
     13.109  0.3899E-02  0.3899E-02  0.7836E-01  0.7836E-01
     13.445  0.5169E-02  0.5168E-02  0.7996E-01  0.7996E-01
     13.780  0.1022E-01  0.1022E-01  0.8299E-01  0.8299E-01
     14.115  0.9759E-02  0.9759E-02  0.8625E-01  0.8625E-01
     14.451  0.1133E-01  0.1133E-01  0.8970E-01  0.8970E-01
     14.786  0.1320E-01  0.1320E-01  0.9378E-01  0.9378E-01
     15.122  0.9028E-02  0.9028E-02  0.9710E-01  0.9710E-01
     15.457  0.5989E-02  0.5989E-02  0.9945E-01  0.9945E-01
     15.792  0.4239E-02  0.4239E-02  0.1011E+00  0.1011E+00
     16.128  0.2277E-02  0.2277E-02  0.1021E+00  0.1021E+00
     16.463  0.2564E-02  0.2564E-02  0.1030E+00  0.1030E+00
     16.799  0.2983E-02  0.2983E-02  0.1039E+00  0.1039E+00
     17.134  0.3588E-02  0.3588E-02  0.1050E+00  0.1050E+00
     17.469  0.3422E-02  0.3422E-02  0.1061E+00  0.1061E+00
     17.805  0.3271E-02  0.3271E-02  0.1072E+00  0.1072E+00
     18.140  0.3351E-02  0.3351E-02  0.1084E+00  0.1084E+00
     18.476  0.4360E-02  0.4360E-02  0.1096E+00  0.1096E+00
     18.811  0.2853E-02  0.2853E-02  0.1109E+00  0.1109E+00
     19.146  0.1377E-02  0.1377E-02  0.1113E+00  0.1113E+00
     19.482  0.5966E-02  0.5966E-02  0.1126E+00  0.1126E+00
     19.817  0.4412E-02  0.4412E-02  0.1143E+00  0.1143E+00
     20.153  0.3973E-02  0.3973E-02  0.1157E+00  0.1157E+00
     20.488  0.3410E-02  0.3410E-02  0.1170E+00  0.1170E+00
     20.824  0.2404E-02  0.2404E-02  0.1179E+00  0.1179E+00
     21.159  0.2212E-02  0.2212E-02  0.1187E+00  0.1187E+00
     21.494  0.2207E-02  0.2207E-02  0.1194E+00  0.1194E+00
     21.830  0.2674E-02  0.2674E-02  0.1202E+00  0.1202E+00
     22.165  0.2923E-02  0.2923E-02  0.1212E+00  0.1212E+00
     22.501  0.1501E-02  0.1501E-02  0.1219E+00  0.1219E+00
     22.836  0.2587E-02  0.2587E-02  0.1225E+00  0.1225E+00
     23.171  0.6411E-02  0.6411E-02  0.1241E+00  0.1241E+00
     23.507  0.6044E-02  0.6044E-02  0.1261E+00  0.1261E+00
     23.842  0.6084E-02  0.6084E-02  0.1281E+00  0.1281E+00
     24.178  0.1381E-01  0.1381E-01  0.1310E+00  0.1310E+00
     24.513  0.2060E-02  0.2060E-02  0.1322E+00  0.1322E+00
     24.848  0.3853E-02  0.3853E-02  0.1331E+00  0.1331E+00
     25.184  0.5978E-02  0.5978E-02  0.1349E+00  0.1349E+00
     25.519  0.7062E-02  0.7062E-02  0.1370E+00  0.1370E+00
     25.855  0.8311E-02  0.8311E-02  0.1396E+00  0.1396E+00
     26.190  0.1995E-02  0.1996E-02  0.1421E+00  0.1421E+00
     26.525  0.1126E-02  0.1126E-02  0.1424E+00  0.1424E+00
     26.861  0.1060E-01  0.1060E-01  0.1442E+00  0.1442E+00
     27.196  0.1302E-01  0.1302E-01  0.1478E+00  0.1478E+00
     27.532  0.1559E-01  0.1559E-01  0.1532E+00  0.1532E+00
     27.867  0.8641E-02  0.8641E-02  0.1573E+00  0.1573E+00
     28.203  0.6739E-02  0.6739E-02  0.1598E+00  0.1598E+00
     28.538  0.4280E-02  0.4280E-02  0.1616E+00  0.1616E+00
     28.873  0.3574E-02  0.3574E-02  0.1629E+00  0.1629E+00
     29.209  0.2009E-02  0.2009E-02  0.1638E+00  0.1638E+00
     29.544  0.1772E-02  0.1772E-02  0.1644E+00  0.1644E+00
     29.880  0.2962E-02  0.2962E-02  0.1651E+00  0.1651E+00
     30.215  0.4467E-02  0.4467E-02  0.1663E+00  0.1663E+00
     30.550  0.8100E-02  0.8100E-02  0.1687E+00  0.1687E+00
     30.886  0.4044E-02  0.4044E-02  0.1706E+00  0.1706E+00
     31.221  0.5213E-02  0.5213E-02  0.1721E+00  0.1721E+00
     31.557  0.5554E-02  0.5554E-02  0.1740E+00  0.1740E+00
     31.892  0.4047E-02  0.4047E-02  0.1755E+00  0.1755E+00
     32.227  0.3455E-02  0.3455E-02  0.1767E+00  0.1767E+00
     32.563  0.4645E-02  0.4645E-02  0.1782E+00  0.1782E+00
     32.898  0.3498E-02  0.3498E-02  0.1795E+00  0.1795E+00
     33.234  0.3656E-02  0.3656E-02  0.1807E+00  0.1807E+00
     33.569  0.5154E-02  0.5154E-02  0.1820E+00  0.1820E+00
     33.904  0.4199E-02  0.4199E-02  0.1837E+00  0.1837E+00
     34.240  0.4553E-02  0.4553E-02  0.1851E+00  0.1851E+00
     34.575  0.5293E-02  0.5293E-02  0.1867E+00  0.1867E+00
     34.911  0.5801E-02  0.5801E-02  0.1885E+00  0.1885E+00
     35.246  0.6552E-02  0.6552E-02  0.1907E+00  0.1907E+00
     35.582  0.6522E-02  0.6522E-02  0.1929E+00  0.1929E+00
     35.917  0.5508E-02  0.5508E-02  0.1947E+00  0.1947E+00
     36.252  0.5012E-02  0.5012E-02  0.1965E+00  0.1965E+00
     36.588  0.4165E-02  0.4165E-02  0.1981E+00  0.1981E+00
     36.923  0.5711E-02  0.5711E-02  0.1996E+00  0.1996E+00
     37.259  0.6714E-02  0.6714E-02  0.2018E+00  0.2018E+00
     37.594  0.5809E-02  0.5809E-02  0.2039E+00  0.2039E+00
     37.929  0.5199E-02  0.5199E-02  0.2057E+00  0.2057E+00
     38.265  0.7621E-02  0.7621E-02  0.2078E+00  0.2078E+00
     38.600  0.4845E-02  0.4845E-02  0.2099E+00  0.2099E+00
     38.936  0.3883E-02  0.3883E-02  0.2113E+00  0.2113E+00
     39.271  0.3864E-02  0.3864E-02  0.2126E+00  0.2126E+00
     39.606  0.4659E-02  0.4659E-02  0.2140E+00  0.2140E+00
     39.942  0.7811E-02  0.7811E-02  0.2159E+00  0.2159E+00
     40.277  0.6788E-02  0.6788E-02  0.2189E+00  0.2189E+00
     40.613  0.4352E-02  0.4352E-02  0.2207E+00  0.2207E+00
     40.948  0.3527E-02  0.3526E-02  0.2220E+00  0.2220E+00
     41.283  0.4494E-02  0.4494E-02  0.2233E+00  0.2233E+00
     41.619  0.5236E-02  0.5236E-02  0.2251E+00  0.2251E+00
     41.954  0.4998E-02  0.4998E-02  0.2267E+00  0.2267E+00
     42.290  0.6085E-02  0.6085E-02  0.2286E+00  0.2286E+00
     42.625  0.5452E-02  0.5452E-02  0.2306E+00  0.2306E+00
     42.961  0.4200E-02  0.4200E-02  0.2322E+00  0.2322E+00
     43.296  0.5161E-02  0.5161E-02  0.2337E+00  0.2337E+00
     43.631  0.3045E-02  0.3045E-02  0.2351E+00  0.2351E+00
     43.967  0.2634E-02  0.2634E-02  0.2360E+00  0.2360E+00
     44.302  0.2584E-02  0.2584E-02  0.2369E+00  0.2369E+00
     44.638  0.2080E-02  0.2079E-02  0.2377E+00  0.2377E+00
     44.973  0.1852E-02  0.1851E-02  0.2383E+00  0.2383E+00
     45.308  0.1592E-02  0.1591E-02  0.2389E+00  0.2389E+00
     45.644  0.1492E-02  0.1491E-02  0.2394E+00  0.2394E+00
     45.979  0.1282E-02  0.1281E-02  0.2399E+00  0.2399E+00
     46.315  0.1268E-02  0.1268E-02  0.2403E+00  0.2403E+00
     46.650  0.1350E-02  0.1346E-02  0.2407E+00  0.2407E+00
     46.985  0.1249E-02  0.1254E-02  0.2412E+00  0.2412E+00
     47.321  0.1121E-02  0.1123E-02  0.2416E+00  0.2416E+00
     47.656  0.1056E-02  0.1057E-02  0.2419E+00  0.2419E+00
     47.992  0.4884E-03  0.4884E-03  0.2422E+00  0.2422E+00
     48.327  0.2565E-03  0.2565E-03  0.2423E+00  0.2423E+00
     48.662  0.1686E-03  0.1686E-03  0.2424E+00  0.2424E+00
     48.998  0.8317E-04  0.8317E-04  0.2424E+00  0.2424E+00
     49.333  0.2102E-04  0.2102E-04  0.2424E+00  0.2424E+00
     49.669  0.7956E-06  0.7955E-06  0.2424E+00  0.2424E+00
     50.004  0.0000E+00  0.0000E+00  0.2424E+00  0.2424E+00
     50.339  0.0000E+00  0.0000E+00  0.2424E+00  0.2424E+00
     50.675  0.0000E+00  0.0000E+00  0.2424E+00  0.2424E+00
     51.010  0.0000E+00  0.0000E+00  0.2424E+00  0.2424E+00
     51.346  0.0000E+00  0.0000E+00  0.2424E+00  0.2424E+00
     51.681  0.0000E+00  0.0000E+00  0.2424E+00  0.2424E+00
     52.017  0.0000E+00  0.0000E+00  0.2424E+00  0.2424E+00
     52.352  0.0000E+00  0.0000E+00  0.2424E+00  0.2424E+00
     52.687  0.0000E+00  0.0000E+00  0.2424E+00  0.2424E+00
     53.023  0.0000E+00  0.0000E+00  0.2424E+00  0.2424E+00
     53.358  0.0000E+00  0.0000E+00  0.2424E+00  0.2424E+00
     53.694  0.0000E+00  0.0000E+00  0.2424E+00  0.2424E+00
     54.029  0.0000E+00  0.0000E+00  0.2424E+00  0.2424E+00
     54.364  0.0000E+00  0.0000E+00  0.2424E+00  0.2424E+00
     54.36440182    -46.25818822  301      1.45368989      1.00000000
    -46.258  0.0000E+00  0.0000E+00  0.0000E+00  0.0000E+00  0.0000E+00  0.0000E+00  0.0000E+00  0.0000E+00  0.0000E+00  0.0000E+00  0.0000E+00  0.0000E+00  0.0000E+00  0.0000E+00  0.0000E+00  0.0000E+00  0.0000E+00  0.0000E+00
    -45.923  0.0000E+00  0.0000E+00  0.0000E+00  0.0000E+00  0.0000E+00  0.0000E+00  0.0000E+00  0.0000E+00  0.0000E+00  0.0000E+00  0.0000E+00  0.0000E+00  0.0000E+00  0.0000E+00  0.0000E+00  0.0000E+00  0.0000E+00  0.0000E+00
    -45.587  0.0000E+00  0.0000E+00  0.0000E+00  0.0000E+00  0.0000E+00  0.0000E+00  0.0000E+00  0.0000E+00  0.0000E+00  0.0000E+00  0.0000E+00  0.0000E+00  0.0000E+00  0.0000E+00  0.0000E+00  0.0000E+00  0.0000E+00  0.0000E+00
    -45.252  0.0000E+00  0.0000E+00  0.0000E+00  0.0000E+00  0.0000E+00  0.0000E+00  0.0000E+00  0.0000E+00  0.0000E+00  0.0000E+00  0.0000E+00  0.0000E+00  0.0000E+00  0.0000E+00  0.0000E+00  0.0000E+00  0.0000E+00  0.0000E+00
    -44.917  0.0000E+00  0.0000E+00  0.0000E+00  0.0000E+00  0.0000E+00  0.0000E+00  0.0000E+00  0.0000E+00  0.0000E+00  0.0000E+00  0.0000E+00  0.0000E+00  0.0000E+00  0.0000E+00  0.0000E+00  0.0000E+00  0.0000E+00  0.0000E+00
    -44.581  0.0000E+00  0.0000E+00  0.0000E+00  0.0000E+00  0.0000E+00  0.0000E+00  0.0000E+00  0.0000E+00  0.0000E+00  0.0000E+00  0.0000E+00  0.0000E+00  0.0000E+00  0.0000E+00  0.0000E+00  0.0000E+00  0.0000E+00  0.0000E+00
    -44.246  0.0000E+00  0.0000E+00  0.0000E+00  0.0000E+00  0.0000E+00  0.0000E+00  0.0000E+00  0.0000E+00  0.0000E+00  0.0000E+00  0.0000E+00  0.0000E+00  0.0000E+00  0.0000E+00  0.0000E+00  0.0000E+00  0.0000E+00  0.0000E+00
    -43.910  0.0000E+00  0.0000E+00  0.0000E+00  0.0000E+00  0.0000E+00  0.0000E+00  0.0000E+00  0.0000E+00  0.0000E+00  0.0000E+00  0.0000E+00  0.0000E+00  0.0000E+00  0.0000E+00  0.0000E+00  0.0000E+00  0.0000E+00  0.0000E+00
    -43.575  0.0000E+00  0.0000E+00  0.0000E+00  0.0000E+00  0.0000E+00  0.0000E+00  0.0000E+00  0.0000E+00  0.0000E+00  0.0000E+00  0.0000E+00  0.0000E+00  0.0000E+00  0.0000E+00  0.0000E+00  0.0000E+00  0.0000E+00  0.0000E+00
    -43.240  0.0000E+00  0.0000E+00  0.0000E+00  0.0000E+00  0.0000E+00  0.0000E+00  0.0000E+00  0.0000E+00  0.0000E+00  0.0000E+00  0.0000E+00  0.0000E+00  0.0000E+00  0.0000E+00  0.0000E+00  0.0000E+00  0.0000E+00  0.0000E+00
    -42.904  0.0000E+00  0.0000E+00  0.0000E+00  0.0000E+00  0.0000E+00  0.0000E+00  0.0000E+00  0.0000E+00  0.0000E+00  0.0000E+00  0.0000E+00  0.0000E+00  0.0000E+00  0.0000E+00  0.0000E+00  0.0000E+00  0.0000E+00  0.0000E+00
    -42.569  0.0000E+00  0.0000E+00  0.0000E+00  0.0000E+00  0.0000E+00  0.0000E+00  0.0000E+00  0.0000E+00  0.0000E+00  0.0000E+00  0.0000E+00  0.0000E+00  0.0000E+00  0.0000E+00  0.0000E+00  0.0000E+00  0.0000E+00  0.0000E+00
    -42.233  0.0000E+00  0.0000E+00  0.0000E+00  0.0000E+00  0.0000E+00  0.0000E+00  0.0000E+00  0.0000E+00  0.0000E+00  0.0000E+00  0.0000E+00  0.0000E+00  0.0000E+00  0.0000E+00  0.0000E+00  0.0000E+00  0.0000E+00  0.0000E+00
    -41.898  0.0000E+00  0.0000E+00  0.0000E+00  0.0000E+00  0.0000E+00  0.0000E+00  0.0000E+00  0.0000E+00  0.0000E+00  0.0000E+00  0.0000E+00  0.0000E+00  0.0000E+00  0.0000E+00  0.0000E+00  0.0000E+00  0.0000E+00  0.0000E+00
    -41.562  0.3893E+01  0.3893E+01  0.3428E-05  0.3428E-05  0.5301E-05  0.5301E-05  0.2482E-05  0.2483E-05  0.0000E+00  0.0000E+00  0.0000E+00  0.0000E+00  0.0000E+00  0.0000E+00  0.0000E+00  0.0000E+00  0.0000E+00  0.0000E+00
    -41.227  0.0000E+00  0.0000E+00  0.0000E+00  0.0000E+00  0.0000E+00  0.0000E+00  0.0000E+00  0.0000E+00  0.0000E+00  0.0000E+00  0.0000E+00  0.0000E+00  0.0000E+00  0.0000E+00  0.0000E+00  0.0000E+00  0.0000E+00  0.0000E+00
    -40.892  0.0000E+00  0.0000E+00  0.0000E+00  0.0000E+00  0.0000E+00  0.0000E+00  0.0000E+00  0.0000E+00  0.0000E+00  0.0000E+00  0.0000E+00  0.0000E+00  0.0000E+00  0.0000E+00  0.0000E+00  0.0000E+00  0.0000E+00  0.0000E+00
    -40.556  0.0000E+00  0.0000E+00  0.0000E+00  0.0000E+00  0.0000E+00  0.0000E+00  0.0000E+00  0.0000E+00  0.0000E+00  0.0000E+00  0.0000E+00  0.0000E+00  0.0000E+00  0.0000E+00  0.0000E+00  0.0000E+00  0.0000E+00  0.0000E+00
    -40.221  0.0000E+00  0.0000E+00  0.0000E+00  0.0000E+00  0.0000E+00  0.0000E+00  0.0000E+00  0.0000E+00  0.0000E+00  0.0000E+00  0.0000E+00  0.0000E+00  0.0000E+00  0.0000E+00  0.0000E+00  0.0000E+00  0.0000E+00  0.0000E+00
    -39.885  0.0000E+00  0.0000E+00  0.0000E+00  0.0000E+00  0.0000E+00  0.0000E+00  0.0000E+00  0.0000E+00  0.0000E+00  0.0000E+00  0.0000E+00  0.0000E+00  0.0000E+00  0.0000E+00  0.0000E+00  0.0000E+00  0.0000E+00  0.0000E+00
    -39.550  0.0000E+00  0.0000E+00  0.0000E+00  0.0000E+00  0.0000E+00  0.0000E+00  0.0000E+00  0.0000E+00  0.0000E+00  0.0000E+00  0.0000E+00  0.0000E+00  0.0000E+00  0.0000E+00  0.0000E+00  0.0000E+00  0.0000E+00  0.0000E+00
    -39.215  0.0000E+00  0.0000E+00  0.0000E+00  0.0000E+00  0.0000E+00  0.0000E+00  0.0000E+00  0.0000E+00  0.0000E+00  0.0000E+00  0.0000E+00  0.0000E+00  0.0000E+00  0.0000E+00  0.0000E+00  0.0000E+00  0.0000E+00  0.0000E+00
    -38.879  0.0000E+00  0.0000E+00  0.0000E+00  0.0000E+00  0.0000E+00  0.0000E+00  0.0000E+00  0.0000E+00  0.0000E+00  0.0000E+00  0.0000E+00  0.0000E+00  0.0000E+00  0.0000E+00  0.0000E+00  0.0000E+00  0.0000E+00  0.0000E+00
    -38.544  0.0000E+00  0.0000E+00  0.0000E+00  0.0000E+00  0.0000E+00  0.0000E+00  0.0000E+00  0.0000E+00  0.0000E+00  0.0000E+00  0.0000E+00  0.0000E+00  0.0000E+00  0.0000E+00  0.0000E+00  0.0000E+00  0.0000E+00  0.0000E+00
    -38.208  0.0000E+00  0.0000E+00  0.0000E+00  0.0000E+00  0.0000E+00  0.0000E+00  0.0000E+00  0.0000E+00  0.0000E+00  0.0000E+00  0.0000E+00  0.0000E+00  0.0000E+00  0.0000E+00  0.0000E+00  0.0000E+00  0.0000E+00  0.0000E+00
    -37.873  0.0000E+00  0.0000E+00  0.0000E+00  0.0000E+00  0.0000E+00  0.0000E+00  0.0000E+00  0.0000E+00  0.0000E+00  0.0000E+00  0.0000E+00  0.0000E+00  0.0000E+00  0.0000E+00  0.0000E+00  0.0000E+00  0.0000E+00  0.0000E+00
    -37.538  0.0000E+00  0.0000E+00  0.0000E+00  0.0000E+00  0.0000E+00  0.0000E+00  0.0000E+00  0.0000E+00  0.0000E+00  0.0000E+00  0.0000E+00  0.0000E+00  0.0000E+00  0.0000E+00  0.0000E+00  0.0000E+00  0.0000E+00  0.0000E+00
    -37.202  0.0000E+00  0.0000E+00  0.0000E+00  0.0000E+00  0.0000E+00  0.0000E+00  0.0000E+00  0.0000E+00  0.0000E+00  0.0000E+00  0.0000E+00  0.0000E+00  0.0000E+00  0.0000E+00  0.0000E+00  0.0000E+00  0.0000E+00  0.0000E+00
    -36.867  0.0000E+00  0.0000E+00  0.0000E+00  0.0000E+00  0.0000E+00  0.0000E+00  0.0000E+00  0.0000E+00  0.0000E+00  0.0000E+00  0.0000E+00  0.0000E+00  0.0000E+00  0.0000E+00  0.0000E+00  0.0000E+00  0.0000E+00  0.0000E+00
    -36.531  0.0000E+00  0.0000E+00  0.0000E+00  0.0000E+00  0.0000E+00  0.0000E+00  0.0000E+00  0.0000E+00  0.0000E+00  0.0000E+00  0.0000E+00  0.0000E+00  0.0000E+00  0.0000E+00  0.0000E+00  0.0000E+00  0.0000E+00  0.0000E+00
    -36.196  0.0000E+00  0.0000E+00  0.0000E+00  0.0000E+00  0.0000E+00  0.0000E+00  0.0000E+00  0.0000E+00  0.0000E+00  0.0000E+00  0.0000E+00  0.0000E+00  0.0000E+00  0.0000E+00  0.0000E+00  0.0000E+00  0.0000E+00  0.0000E+00
    -35.861  0.0000E+00  0.0000E+00  0.0000E+00  0.0000E+00  0.0000E+00  0.0000E+00  0.0000E+00  0.0000E+00  0.0000E+00  0.0000E+00  0.0000E+00  0.0000E+00  0.0000E+00  0.0000E+00  0.0000E+00  0.0000E+00  0.0000E+00  0.0000E+00
    -35.525  0.0000E+00  0.0000E+00  0.0000E+00  0.0000E+00  0.0000E+00  0.0000E+00  0.0000E+00  0.0000E+00  0.0000E+00  0.0000E+00  0.0000E+00  0.0000E+00  0.0000E+00  0.0000E+00  0.0000E+00  0.0000E+00  0.0000E+00  0.0000E+00
    -35.190  0.0000E+00  0.0000E+00  0.0000E+00  0.0000E+00  0.0000E+00  0.0000E+00  0.0000E+00  0.0000E+00  0.0000E+00  0.0000E+00  0.0000E+00  0.0000E+00  0.0000E+00  0.0000E+00  0.0000E+00  0.0000E+00  0.0000E+00  0.0000E+00
    -34.854  0.0000E+00  0.0000E+00  0.0000E+00  0.0000E+00  0.0000E+00  0.0000E+00  0.0000E+00  0.0000E+00  0.0000E+00  0.0000E+00  0.0000E+00  0.0000E+00  0.0000E+00  0.0000E+00  0.0000E+00  0.0000E+00  0.0000E+00  0.0000E+00
    -34.519  0.0000E+00  0.0000E+00  0.0000E+00  0.0000E+00  0.0000E+00  0.0000E+00  0.0000E+00  0.0000E+00  0.0000E+00  0.0000E+00  0.0000E+00  0.0000E+00  0.0000E+00  0.0000E+00  0.0000E+00  0.0000E+00  0.0000E+00  0.0000E+00
    -34.183  0.0000E+00  0.0000E+00  0.0000E+00  0.0000E+00  0.0000E+00  0.0000E+00  0.0000E+00  0.0000E+00  0.0000E+00  0.0000E+00  0.0000E+00  0.0000E+00  0.0000E+00  0.0000E+00  0.0000E+00  0.0000E+00  0.0000E+00  0.0000E+00
    -33.848  0.0000E+00  0.0000E+00  0.0000E+00  0.0000E+00  0.0000E+00  0.0000E+00  0.0000E+00  0.0000E+00  0.0000E+00  0.0000E+00  0.0000E+00  0.0000E+00  0.0000E+00  0.0000E+00  0.0000E+00  0.0000E+00  0.0000E+00  0.0000E+00
    -33.513  0.0000E+00  0.0000E+00  0.0000E+00  0.0000E+00  0.0000E+00  0.0000E+00  0.0000E+00  0.0000E+00  0.0000E+00  0.0000E+00  0.0000E+00  0.0000E+00  0.0000E+00  0.0000E+00  0.0000E+00  0.0000E+00  0.0000E+00  0.0000E+00
    -33.177  0.0000E+00  0.0000E+00  0.0000E+00  0.0000E+00  0.0000E+00  0.0000E+00  0.0000E+00  0.0000E+00  0.0000E+00  0.0000E+00  0.0000E+00  0.0000E+00  0.0000E+00  0.0000E+00  0.0000E+00  0.0000E+00  0.0000E+00  0.0000E+00
    -32.842  0.0000E+00  0.0000E+00  0.0000E+00  0.0000E+00  0.0000E+00  0.0000E+00  0.0000E+00  0.0000E+00  0.0000E+00  0.0000E+00  0.0000E+00  0.0000E+00  0.0000E+00  0.0000E+00  0.0000E+00  0.0000E+00  0.0000E+00  0.0000E+00
    -32.506  0.0000E+00  0.0000E+00  0.0000E+00  0.0000E+00  0.0000E+00  0.0000E+00  0.0000E+00  0.0000E+00  0.0000E+00  0.0000E+00  0.0000E+00  0.0000E+00  0.0000E+00  0.0000E+00  0.0000E+00  0.0000E+00  0.0000E+00  0.0000E+00
    -32.171  0.0000E+00  0.0000E+00  0.0000E+00  0.0000E+00  0.0000E+00  0.0000E+00  0.0000E+00  0.0000E+00  0.0000E+00  0.0000E+00  0.0000E+00  0.0000E+00  0.0000E+00  0.0000E+00  0.0000E+00  0.0000E+00  0.0000E+00  0.0000E+00
    -31.836  0.0000E+00  0.0000E+00  0.0000E+00  0.0000E+00  0.0000E+00  0.0000E+00  0.0000E+00  0.0000E+00  0.0000E+00  0.0000E+00  0.0000E+00  0.0000E+00  0.0000E+00  0.0000E+00  0.0000E+00  0.0000E+00  0.0000E+00  0.0000E+00
    -31.500  0.0000E+00  0.0000E+00  0.0000E+00  0.0000E+00  0.0000E+00  0.0000E+00  0.0000E+00  0.0000E+00  0.0000E+00  0.0000E+00  0.0000E+00  0.0000E+00  0.0000E+00  0.0000E+00  0.0000E+00  0.0000E+00  0.0000E+00  0.0000E+00
    -31.165  0.0000E+00  0.0000E+00  0.0000E+00  0.0000E+00  0.0000E+00  0.0000E+00  0.0000E+00  0.0000E+00  0.0000E+00  0.0000E+00  0.0000E+00  0.0000E+00  0.0000E+00  0.0000E+00  0.0000E+00  0.0000E+00  0.0000E+00  0.0000E+00
    -30.829  0.0000E+00  0.0000E+00  0.0000E+00  0.0000E+00  0.0000E+00  0.0000E+00  0.0000E+00  0.0000E+00  0.0000E+00  0.0000E+00  0.0000E+00  0.0000E+00  0.0000E+00  0.0000E+00  0.0000E+00  0.0000E+00  0.0000E+00  0.0000E+00
    -30.494  0.0000E+00  0.0000E+00  0.0000E+00  0.0000E+00  0.0000E+00  0.0000E+00  0.0000E+00  0.0000E+00  0.0000E+00  0.0000E+00  0.0000E+00  0.0000E+00  0.0000E+00  0.0000E+00  0.0000E+00  0.0000E+00  0.0000E+00  0.0000E+00
    -30.159  0.0000E+00  0.0000E+00  0.0000E+00  0.0000E+00  0.0000E+00  0.0000E+00  0.0000E+00  0.0000E+00  0.0000E+00  0.0000E+00  0.0000E+00  0.0000E+00  0.0000E+00  0.0000E+00  0.0000E+00  0.0000E+00  0.0000E+00  0.0000E+00
    -29.823  0.0000E+00  0.0000E+00  0.0000E+00  0.0000E+00  0.0000E+00  0.0000E+00  0.0000E+00  0.0000E+00  0.0000E+00  0.0000E+00  0.0000E+00  0.0000E+00  0.0000E+00  0.0000E+00  0.0000E+00  0.0000E+00  0.0000E+00  0.0000E+00
    -29.488  0.0000E+00  0.0000E+00  0.0000E+00  0.0000E+00  0.0000E+00  0.0000E+00  0.0000E+00  0.0000E+00  0.0000E+00  0.0000E+00  0.0000E+00  0.0000E+00  0.0000E+00  0.0000E+00  0.0000E+00  0.0000E+00  0.0000E+00  0.0000E+00