    3    3   99    2
  0.8426606E+01  0.3294299E-09  0.3294299E-09  0.3294299E-09  0.5000000E-15
  1.000000000000000E-004
  CAR 
 unknown system                          
     12     72     24
 
  0.0000000E+00  0.0000000E+00  0.0000000E+00  0.5787037E-03
    1      -41.684432    -41.684434   1.000000   1.000000
    2      -41.358971    -41.358974   1.000000   1.000000
    3      -14.119563    -14.119562   1.000000   1.000000
    4        1.322179      1.322178   1.000000   1.000000
    5        1.322181      1.322180   1.000000   1.000000
    6        1.322181      1.322180   1.000000   1.000000
    7        6.566833      6.566830   0.000000   0.000000
    8       13.228100     13.228104   0.000000   0.000000
    9       13.228100     13.228104   0.000000   0.000000
   10       13.228139     13.228141   0.000000   0.000000
   11       20.270622     20.270624   0.000000   0.000000
   12       20.270622     20.270624   0.000000   0.000000
   13       20.270668     20.270669   0.000000   0.000000
   14       22.606667     22.606666   0.000000   0.000000
   15       22.606667     22.606666   0.000000   0.000000
   16       28.866833     28.866828   0.000000   0.000000
   17       29.035677     29.035683   0.000000   0.000000
   18       29.035677     29.035683   0.000000   0.000000
   19       29.035690     29.035695   0.000000   0.000000
   20       32.841318     32.841310   0.000000   0.000000
   21       47.590897     47.590898   0.000000   0.000000
   22       47.590898     47.590898   0.000000   0.000000
   23       47.590915     47.590916   0.000000   0.000000
   24       49.790648     49.790640   0.000000   0.000000
 
  0.8333333E-01  0.0000000E+00  0.0000000E+00  0.4629630E-02
    1      -41.678072    -41.678074   1.000000   1.000000
    2      -41.363292    -41.363294   1.000000   1.000000
    3      -14.105760    -14.105760   1.000000   1.000000
    4        1.081306      1.081305   1.000000   1.000000
    5        1.289124      1.289123   1.000000   1.000000
    6        1.289126      1.289125   1.000000   1.000000
    7        6.760816      6.760813   0.000000   0.000000
    8       13.242962     13.242965   0.000000   0.000000
    9       13.331872     13.331875   0.000000   0.000000
   10       13.331907     13.331909   0.000000   0.000000
   11       19.466642     19.466643   0.000000   0.000000
   12       19.466673     19.466674   0.000000   0.000000
   13       20.502651     20.502652   0.000000   0.000000
   14       23.749501     23.749501   0.000000   0.000000
   15       23.749509     23.749508   0.000000   0.000000
   16       28.010188     28.010192   0.000000   0.000000
   17       29.056677     29.056683   0.000000   0.000000
   18       29.056688     29.056694   0.000000   0.000000
   19       29.988693     29.988691   0.000000   0.000000
   20       32.747934     32.747926   0.000000   0.000000
   21       45.678340     45.678341   0.000000   0.000000
   22       45.678359     45.678358   0.000000   0.000000
   23       47.578493     47.578494   0.000000   0.000000
   24       48.980488     48.980486   0.000000   0.000000
 
  0.1666667E+00  0.0000000E+00  0.0000000E+00  0.4629630E-02
    1      -41.659296    -41.659298   1.000000   1.000000
    2      -41.377346    -41.377349   1.000000   1.000000
    3      -14.067593    -14.067593   1.000000   1.000000
    4        0.486688      0.486687   1.000000   1.000000
    5        1.201515      1.201514   1.000000   1.000000
    6        1.201516      1.201516   1.000000   1.000000
    7        7.269780      7.269777   0.000000   0.000000
    8       13.219496     13.219498   0.000000   0.000000
    9       13.561604     13.561607   0.000000   0.000000
   10       13.561639     13.561641   0.000000   0.000000
   11       18.485763     18.485765   0.000000   0.000000
   12       18.485791     18.485792   0.000000   0.000000
   13       21.145005     21.145005   0.000000   0.000000
   14       25.684762     25.684761   0.000000   0.000000
   15       25.684771     25.684770   0.000000   0.000000
   16       27.192801     27.192808   0.000000   0.000000
   17       29.198858     29.198864   0.000000   0.000000
   18       29.198872     29.198878   0.000000   0.000000
   19       31.096657     31.096653   0.000000   0.000000
   20       32.529487     32.529481   0.000000   0.000000
   21       42.558996     42.558996   0.000000   0.000000
   22       42.559014     42.559013   0.000000   0.000000
   23       46.873935     46.873938   0.000000   0.000000
   24       49.212732     49.212732   0.000000   0.000000
 
  0.2500000E+00  0.0000000E+00  0.0000000E+00  0.4629630E-02
    1      -41.630088    -41.630090   1.000000   1.000000
    2      -41.400169    -41.400172   1.000000   1.000000
    3      -14.013089    -14.013089   1.000000   1.000000
    4       -0.223540     -0.223541   1.000000   1.000000
    5        1.087890      1.087889   1.000000   1.000000
    6        1.087891      1.087890   1.000000   1.000000
    7        7.981110      7.981107   0.000000   0.000000
    8       13.015128     13.015129   0.000000   0.000000
    9       13.699802     13.699805   0.000000   0.000000
   10       13.699837     13.699839   0.000000   0.000000
   11       18.074473     18.074475   0.000000   0.000000
   12       18.074499     18.074500   0.000000   0.000000
   13       22.047184     22.047182   0.000000   0.000000
   14       26.591616     26.591623   0.000000   0.000000
   15       27.111006     27.111006   0.000000   0.000000
   16       27.111011     27.111011   0.000000   0.000000
   17       30.048932     30.048938   0.000000   0.000000
   18       30.048950     30.048955   0.000000   0.000000
   19       31.353555     31.353553   0.000000   0.000000
   20       33.375310     33.375307   0.000000   0.000000
   21       39.933932     39.933932   0.000000   0.000000
   22       39.933950     39.933949   0.000000   0.000000
   23       45.241134     45.241138   0.000000   0.000000
   24       49.669973     49.669975   0.000000   0.000000
 
  0.3333333E+00  0.0000000E+00  0.0000000E+00  0.4629630E-02
    1      -41.593336    -41.593339   1.000000   1.000000
    2      -41.430800    -41.430803   1.000000   1.000000
    3      -13.955980    -13.955979   1.000000   1.000000
    4       -0.856500     -0.856502   1.000000   1.000000
    5        0.980553      0.980552   1.000000   1.000000
    6        0.980553      0.980553   1.000000   1.000000
    7        8.830345      8.830342   0.000000   0.000000
    8       12.529725     12.529725   0.000000   0.000000
    9       13.609159     13.609161   0.000000   0.000000
   10       13.609193     13.609195   0.000000   0.000000
   11       18.315798     18.315801   0.000000   0.000000
   12       18.315825     18.315827   0.000000   0.000000
   13       22.998227     22.998223   0.000000   0.000000
   14       26.273861     26.273867   0.000000   0.000000
   15       27.232655     27.232656   0.000000   0.000000
   16       27.232660     27.232661   0.000000   0.000000
   17       30.826483     30.826486   0.000000   0.000000
   18       32.079424     32.079428   0.000000   0.000000
   19       32.079438     32.079442   0.000000   0.000000
   20       35.330018     35.330018   0.000000   0.000000
   21       38.257019     38.257020   0.000000   0.000000
   22       38.257039     38.257039   0.000000   0.000000
   23       43.628093     43.628096   0.000000   0.000000
   24       48.243803     48.243818   0.000000   0.000000
 
  0.4166667E+00  0.0000000E+00  0.0000000E+00  0.4629630E-02
    1      -41.551711    -41.551713   1.000000   1.000000
    2      -41.467706    -41.467709   1.000000   1.000000
    3      -13.912024    -13.912023   1.000000   1.000000
    4       -1.284733     -1.284734   1.000000   1.000000
    5        0.905603      0.905603   1.000000   1.000000
    6        0.905604      0.905603   1.000000   1.000000
    7        9.764381      9.764379   0.000000   0.000000
    8       11.785692     11.785691   0.000000   0.000000
    9       13.433281     13.433283   0.000000   0.000000
   10       13.433315     13.433316   0.000000   0.000000
   11       18.840080     18.840084   0.000000   0.000000
   12       18.840109     18.840111   0.000000   0.000000
   13       23.760820     23.760815   0.000000   0.000000
   14       26.183573     26.183577   0.000000   0.000000
   15       26.841410     26.841411   0.000000   0.000000
   16       26.841415     26.841416   0.000000   0.000000
   17       30.306469     30.306476   0.000000   0.000000
   18       33.828291     33.828292   0.000000   0.000000
   19       33.828296     33.828297   0.000000   0.000000
   20       37.387675     37.387680   0.000000   0.000000
   21       38.333456     38.333459   0.000000   0.000000
   22       38.333483     38.333485   0.000000   0.000000
   23       42.969179     42.969178   0.000000   0.000000
   24       44.512172     44.512172   0.000000   0.000000
 
  0.5000000E+00  0.0000000E+00  0.0000000E+00  0.2314815E-02
    1      -41.509544    -41.509546   1.000000   1.000000
    2      -41.508459    -41.508462   1.000000   1.000000
    3      -13.895765    -13.895765   1.000000   1.000000
    4       -1.435541     -1.435543   1.000000   1.000000
    5        0.878872      0.878871   1.000000   1.000000
    6        0.878872      0.878872   1.000000   1.000000
    7       10.503792     10.503791   0.000000   0.000000
    8       11.100451     11.100449   0.000000   0.000000
    9       13.354239     13.354242   0.000000   0.000000
   10       13.354273     13.354274   0.000000   0.000000
   11       19.107370     19.107374   0.000000   0.000000
   12       19.107400     19.107402   0.000000   0.000000
   13       24.060144     24.060139   0.000000   0.000000
   14       26.177013     26.177016   0.000000   0.000000
   15       26.612298     26.612299   0.000000   0.000000
   16       26.612303     26.612304   0.000000   0.000000
   17       30.082426     30.082435   0.000000   0.000000
   18       34.243270     34.243270   0.000000   0.000000
   19       34.243272     34.243272   0.000000   0.000000
   20       38.288927     38.288935   0.000000   0.000000
   21       40.080852     40.080855   0.000000   0.000000
   22       40.080878     40.080881   0.000000   0.000000
   23       41.692200     41.692207   0.000000   0.000000
   24       41.692230     41.692236   0.000000   0.000000
 
  0.8333333E-01  0.8333333E-01  0.0000000E+00  0.3472222E-02
    1      -41.676071    -41.676074   1.000000   1.000000
    2      -41.364742    -41.364745   1.000000   1.000000
    3      -14.101372    -14.101371   1.000000   1.000000
    4        1.127430      1.127429   1.000000   1.000000
    5        1.216932      1.216931   1.000000   1.000000
    6        1.216933      1.216932   1.000000   1.000000
    7        6.809314      6.809310   0.000000   0.000000
    8       13.291860     13.291863   0.000000   0.000000
    9       13.291885     13.291888   0.000000   0.000000
   10       13.425520     13.425523   0.000000   0.000000
   11       18.332973     18.332974   0.000000   0.000000
   12       20.734022     20.734025   0.000000   0.000000
   13       20.734054     20.734055   0.000000   0.000000
   14       22.800888     22.800888   0.000000   0.000000
   15       24.412451     24.412450   0.000000   0.000000
   16       28.354641     28.354645   0.000000   0.000000
   17       28.906281     28.906287   0.000000   0.000000
   18       28.906290     28.906295   0.000000   0.000000
   19       30.202461     30.202459   0.000000   0.000000
   20       32.692655     32.692648   0.000000   0.000000
   21       45.874404     45.874405   0.000000   0.000000
   22       45.874415     45.874415   0.000000   0.000000
   23       46.018239     46.018239   0.000000   0.000000
   24       47.792031     47.792032   0.000000   0.000000
 
  0.1666667E+00  0.8333333E-01  0.0000000E+00  0.1388889E-01
    1      -41.661746    -41.661748   1.000000   1.000000
    2      -41.375322    -41.375325   1.000000   1.000000
    3      -14.071676    -14.071675   1.000000   1.000000
    4        0.676586      0.676585   1.000000   1.000000
    5        1.096699      1.096698   1.000000   1.000000
    6        1.183505      1.183504   1.000000   1.000000
    7        7.167926      7.167923   0.000000   0.000000
    8       13.308688     13.308690   0.000000   0.000000
    9       13.420872     13.420875   0.000000   0.000000
   10       13.729292     13.729295   0.000000   0.000000
   11       17.270580     17.270580   0.000000   0.000000
   12       20.301270     20.301272   0.000000   0.000000
   13       21.310798     21.310800   0.000000   0.000000
   14       24.231993     24.231993   0.000000   0.000000
   15       25.202594     25.202594   0.000000   0.000000
   16       28.157802     28.157807   0.000000   0.000000
   17       28.778750     28.778755   0.000000   0.000000
   18       29.524472     29.524478   0.000000   0.000000
   19       31.051534     31.051530   0.000000   0.000000
   20       32.439286     32.439280   0.000000   0.000000
   21       42.585087     42.585086   0.000000   0.000000
   22       43.820031     43.820031   0.000000   0.000000
   23       46.285097     46.285096   0.000000   0.000000
   24       47.638149     47.638151   0.000000   0.000000
 
  0.2500000E+00  0.8333333E-01  0.0000000E+00  0.1388889E-01
    1      -41.636659    -41.636662   1.000000   1.000000
    2      -41.394594    -41.394597   1.000000   1.000000
    3      -14.022940    -14.022940   1.000000   1.000000
    4        0.012926      0.012925   1.000000   1.000000
    5        0.965413      0.965412   1.000000   1.000000
    6        1.111302      1.111301   1.000000   1.000000
    7        7.748077      7.748074   0.000000   0.000000
    8       13.135816     13.135817   0.000000   0.000000
    9       13.562698     13.562700   0.000000   0.000000
   10       14.069071     14.069073   0.000000   0.000000
   11       16.748706     16.748707   0.000000   0.000000
   12       19.703292     19.703293   0.000000   0.000000
   13       22.061348     22.061348   0.000000   0.000000
   14       25.614637     25.614640   0.000000   0.000000
   15       26.410267     26.410266   0.000000   0.000000
   16       27.885128     27.885132   0.000000   0.000000
   17       28.740551     28.740557   0.000000   0.000000
   18       30.962777     30.962782   0.000000   0.000000
   19       31.642759     31.642757   0.000000   0.000000
   20       32.870285     32.870282   0.000000   0.000000
   21       39.816413     39.816412   0.000000   0.000000
   22       41.184481     41.184480   0.000000   0.000000
   23       46.266693     46.266696   0.000000   0.000000
   24       46.821106     46.821106   0.000000   0.000000
 
  0.3333333E+00  0.8333333E-01  0.0000000E+00  0.1388889E-01
    1      -41.603010    -41.603013   1.000000   1.000000
    2      -41.421889    -41.421892   1.000000   1.000000
    3      -13.966665    -13.966664   1.000000   1.000000
    4       -0.637334     -0.637335   1.000000   1.000000
    5        0.859078      0.859077   1.000000   1.000000
    6        1.001037      1.001036   1.000000   1.000000
    7        8.482791      8.482789   0.000000   0.000000
    8       12.688642     12.688642   0.000000   0.000000
    9       13.585872     13.585874   0.000000   0.000000
   10       14.110604     14.110606   0.000000   0.000000
   11       17.036540     17.036542   0.000000   0.000000
   12       19.529480     19.529482   0.000000   0.000000
   13       22.875207     22.875206   0.000000   0.000000
   14       25.732404     25.732409   0.000000   0.000000
   15       27.351858     27.351859   0.000000   0.000000
   16       27.669880     27.669882   0.000000   0.000000
   17       30.015046     30.015050   0.000000   0.000000
   18       31.115290     31.115291   0.000000   0.000000
   19       32.945430     32.945433   0.000000   0.000000
   20       34.808133     34.808133   0.000000   0.000000
   21       37.951201     37.951201   0.000000   0.000000
   22       39.029698     39.029698   0.000000   0.000000
   23       44.519275     44.519278   0.000000   0.000000
   24       47.453933     47.453934   0.000000   0.000000
 
  0.4166667E+00  0.8333333E-01  0.0000000E+00  0.1388889E-01
    1      -41.563906    -41.563909   1.000000   1.000000
    2      -41.455745    -41.455748   1.000000   1.000000
    3      -13.918067    -13.918066   1.000000   1.000000
    4       -1.128496     -1.128497   1.000000   1.000000
    5        0.802868      0.802867   1.000000   1.000000
    6        0.885024      0.885023   1.000000   1.000000
    7        9.312242      9.312241   0.000000   0.000000
    8       12.031378     12.031377   0.000000   0.000000
    9       13.514021     13.514023   0.000000   0.000000
   10       13.901790     13.901791   0.000000   0.000000
   11       17.876991     17.876993   0.000000   0.000000
   12       19.556018     19.556021   0.000000   0.000000
   13       23.617436     23.617434   0.000000   0.000000
   14       25.855088     25.855093   0.000000   0.000000
   15       26.995774     26.995776   0.000000   0.000000
   16       27.292601     27.292602   0.000000   0.000000
   17       30.606534     30.606540   0.000000   0.000000
   18       32.398188     32.398189   0.000000   0.000000
   19       34.486496     34.486497   0.000000   0.000000
   20       36.664285     36.664288   0.000000   0.000000
   21       37.389136     37.389137   0.000000   0.000000
   22       38.850167     38.850169   0.000000   0.000000
   23       43.309582     43.309583   0.000000   0.000000
   24       44.684852     44.684856   0.000000   0.000000
 
  0.5000000E+00  0.8333333E-01  0.0000000E+00  0.1388889E-01
    1      -41.522559    -41.522561   1.000000   1.000000
    2      -41.494556    -41.494559   1.000000   1.000000
    3      -13.892317    -13.892316   1.000000   1.000000
    4       -1.370414     -1.370415   1.000000   1.000000
    5        0.793347      0.793347   1.000000   1.000000
    6        0.807856      0.807855   1.000000   1.000000
    7       10.079625     10.079624   0.000000   0.000000
    8       11.333402     11.333401   0.000000   0.000000
    9       13.479440     13.479441   0.000000   0.000000
   10       13.719360     13.719361   0.000000   0.000000
   11       18.769953     18.769956   0.000000   0.000000
   12       19.308602     19.308606   0.000000   0.000000
   13       24.064365     24.064362   0.000000   0.000000
   14       26.090635     26.090638   0.000000   0.000000
   15       26.750708     26.750709   0.000000   0.000000
   16       26.778091     26.778091   0.000000   0.000000
   17       30.287855     30.287864   0.000000   0.000000
   18       34.031833     34.031833   0.000000   0.000000
   19       34.223683     34.223682   0.000000   0.000000
   20       38.129655     38.129663   0.000000   0.000000
   21       38.780917     38.780920   0.000000   0.000000
   22       40.453438     40.453441   0.000000   0.000000
   23       41.919342     41.919348   0.000000   0.000000
   24       43.282838     43.282844   0.000000   0.000000
 
 -0.4166667E+00  0.8333333E-01  0.0000000E+00  0.1388889E-01
    1      -41.535826    -41.535829   1.000000   1.000000
    2      -41.481792    -41.481795   1.000000   1.000000
    3      -13.897632    -13.897631   1.000000   1.000000
    4       -1.322870     -1.322871   1.000000   1.000000
    5        0.748267      0.748266   1.000000   1.000000
    6        0.871550      0.871549   1.000000   1.000000
    7        9.946141      9.946139   0.000000   0.000000
    8       11.429300     11.429299   0.000000   0.000000
    9       13.589632     13.589633   0.000000   0.000000
   10       13.682584     13.682585   0.000000   0.000000
   11       18.554333     18.554336   0.000000   0.000000
   12       19.337608     19.337611   0.000000   0.000000
   13       23.977876     23.977873   0.000000   0.000000
   14       26.148291     26.148295   0.000000   0.000000
   15       26.683539     26.683540   0.000000   0.000000
   16       26.932959     26.932961   0.000000   0.000000
   17       30.321422     30.321430   0.000000   0.000000
   18       33.443951     33.443950   0.000000   0.000000
   19       34.766556     34.766556   0.000000   0.000000
   20       37.322254     37.322259   0.000000   0.000000
   21       38.809062     38.809067   0.000000   0.000000
   22       39.790267     39.790271   0.000000   0.000000
   23       42.244557     42.244563   0.000000   0.000000
   24       43.256243     43.256244   0.000000   0.000000
 
 -0.3333333E+00  0.8333333E-01  0.0000000E+00  0.1388889E-01
    1      -41.576855    -41.576858   1.000000   1.000000
    2      -41.444383    -41.444386   1.000000   1.000000
    3      -13.932401    -13.932401   1.000000   1.000000
    4       -0.994738     -0.994739   1.000000   1.000000
    5        0.761731      0.761731   1.000000   1.000000
    6        0.979470      0.979469   1.000000   1.000000
    7        9.121277      9.121275   0.000000   0.000000
    8       12.112500     12.112500   0.000000   0.000000
    9       13.733323     13.733324   0.000000   0.000000
   10       13.863293     13.863295   0.000000   0.000000
   11       17.554663     17.554665   0.000000   0.000000
   12       19.478191     19.478194   0.000000   0.000000
   13       23.413104     23.413101   0.000000   0.000000
   14       25.845495     25.845500   0.000000   0.000000
   15       27.260325     27.260327   0.000000   0.000000
   16       27.276649     27.276650   0.000000   0.000000
   17       30.571502     30.571506   0.000000   0.000000
   18       31.942510     31.942513   0.000000   0.000000
   19       34.277326     34.277329   0.000000   0.000000
   20       36.022587     36.022588   0.000000   0.000000
   21       37.247719     37.247720   0.000000   0.000000
   22       38.620084     38.620085   0.000000   0.000000
   23       43.557484     43.557486   0.000000   0.000000
   24       45.888073     45.888080   0.000000   0.000000
 
 -0.2500000E+00  0.8333333E-01  0.0000000E+00  0.1388889E-01
    1      -41.614561    -41.614564   1.000000   1.000000
    2      -41.412484    -41.412486   1.000000   1.000000
    3      -13.985321    -13.985320   1.000000   1.000000
    4       -0.444718     -0.444719   1.000000   1.000000
    5        0.834322      0.834321   1.000000   1.000000
    6        1.106911      1.106910   1.000000   1.000000
    7        8.295045      8.295043   0.000000   0.000000
    8       12.701613     12.701613   0.000000   0.000000
    9       13.721977     13.721979   0.000000   0.000000
   10       14.137034     14.137035   0.000000   0.000000
   11       16.821216     16.821217   0.000000   0.000000
   12       19.433653     19.433655   0.000000   0.000000
   13       22.670081     22.670080   0.000000   0.000000
   14       25.551038     25.551042   0.000000   0.000000
   15       27.393571     27.393572   0.000000   0.000000
   16       27.737773     27.737776   0.000000   0.000000
   17       29.543589     29.543593   0.000000   0.000000
   18       31.469439     31.469439   0.000000   0.000000
   19       32.161902     32.161907   0.000000   0.000000
   20       33.996524     33.996523   0.000000   0.000000
   21       38.108405     38.108405   0.000000   0.000000
   22       39.980480     39.980480   0.000000   0.000000
   23       45.014831     45.014834   0.000000   0.000000
   24       47.671710     47.671716   0.000000   0.000000
 
 -0.1666667E+00  0.8333333E-01  0.0000000E+00  0.1388889E-01
    1      -41.645753    -41.645755   1.000000   1.000000
    2      -41.387612    -41.387615   1.000000   1.000000
    3      -14.040635    -14.040634   1.000000   1.000000
    4        0.213656      0.213655   1.000000   1.000000
    5        0.956347      0.956346   1.000000   1.000000
    6        1.221672      1.221671   1.000000   1.000000
    7        7.582657      7.582654   0.000000   0.000000
    8       13.087801     13.087803   0.000000   0.000000
    9       13.571515     13.571517   0.000000   0.000000
   10       14.010782     14.010785   0.000000   0.000000
   11       16.974529     16.974530   0.000000   0.000000
   12       19.478534     19.478535   0.000000   0.000000
   13       21.942220     21.942221   0.000000   0.000000
   14       24.855339     24.855339   0.000000   0.000000
   15       26.880620     26.880619   0.000000   0.000000
   16       27.725751     27.725756   0.000000   0.000000
   17       28.705204     28.705209   0.000000   0.000000
   18       30.255717     30.255724   0.000000   0.000000
   19       31.660047     31.660044   0.000000   0.000000
   20       32.472781     32.472777   0.000000   0.000000
   21       40.276182     40.276182   0.000000   0.000000
   22       42.410445     42.410444   0.000000   0.000000
   23       46.746705     46.746708   0.000000   0.000000
   24       47.193437     47.193436   0.000000   0.000000
 
 -0.8333333E-01  0.8333333E-01  0.0000000E+00  0.6944444E-02
    1      -41.667657    -41.667660   1.000000   1.000000
    2      -41.370980    -41.370982   1.000000   1.000000
    3      -14.084077    -14.084076   1.000000   1.000000
    4        0.793898      0.793898   1.000000   1.000000
    5        1.119786      1.119785   1.000000   1.000000
    6        1.290228      1.290227   1.000000   1.000000
    7        7.044185      7.044182   0.000000   0.000000
    8       13.251826     13.251828   0.000000   0.000000
    9       13.376156     13.376160   0.000000   0.000000
   10       13.607824     13.607826   0.000000   0.000000
   11       17.996710     17.996711   0.000000   0.000000
   12       19.656582     19.656582   0.000000   0.000000
   13       21.172247     21.172249   0.000000   0.000000
   14       23.890999     23.890998   0.000000   0.000000
   15       25.450348     25.450347   0.000000   0.000000
   16       27.766822     27.766828   0.000000   0.000000
   17       28.787358     28.787364   0.000000   0.000000
   18       29.362629     29.362635   0.000000   0.000000
   19       30.714726     30.714722   0.000000   0.000000
   20       32.556254     32.556247   0.000000   0.000000
   21       43.078638     43.078638   0.000000   0.000000
   22       44.838507     44.838507   0.000000   0.000000
   23       47.491245     47.491244   0.000000   0.000000
   24       47.625335     47.625333   0.000000   0.000000
 
  0.1666667E+00  0.1666667E+00  0.0000000E+00  0.3472222E-02
    1      -41.652864    -41.652867   1.000000   1.000000
    2      -41.381662    -41.381665   1.000000   1.000000
    3      -14.052045    -14.052044   1.000000   1.000000
    4        0.695780      0.695779   1.000000   1.000000
    5        0.940578      0.940577   1.000000   1.000000
    6        0.940578      0.940578   1.000000   1.000000
    7        7.265535      7.265532   0.000000   0.000000
    8       13.498260     13.498263   0.000000   0.000000
    9       13.498284     13.498286   0.000000   0.000000
   10       13.992840     13.992842   0.000000   0.000000
   11       16.249838     16.249837   0.000000   0.000000
   12       22.014123     22.014126   0.000000   0.000000
   13       22.014156     22.014158   0.000000   0.000000
   14       23.383593     23.383592   0.000000   0.000000
   15       24.586915     24.586915   0.000000   0.000000
   16       28.555437     28.555442   0.000000   0.000000
   17       28.555446     28.555451   0.000000   0.000000
   18       30.596943     30.596948   0.000000   0.000000
   19       31.568898     31.568895   0.000000   0.000000
   20       32.168435     32.168431   0.000000   0.000000
   21       41.987500     41.987499   0.000000   0.000000
   22       43.616402     43.616402   0.000000   0.000000
   23       43.616410     43.616409   0.000000   0.000000
   24       48.385821     48.385867   0.000000   0.000000
 
  0.2500000E+00  0.1666667E+00  0.0000000E+00  0.1388889E-01
    1      -41.633428    -41.633431   1.000000   1.000000
    2      -41.396147    -41.396149   1.000000   1.000000
    3      -14.012631    -14.012631   1.000000   1.000000
    4        0.222945      0.222944   1.000000   1.000000
    5        0.779788      0.779787   1.000000   1.000000
    6        0.889242      0.889241   1.000000   1.000000
    7        7.543780      7.543778   0.000000   0.000000
    8       13.467887     13.467889   0.000000   0.000000
    9       13.654211     13.654212   0.000000   0.000000
   10       14.447192     14.447194   0.000000   0.000000
   11       15.736113     15.736113   0.000000   0.000000
   12       21.677446     21.677448   0.000000   0.000000
   13       22.702076     22.702079   0.000000   0.000000
   14       24.455559     24.455561   0.000000   0.000000
   15       25.244211     25.244211   0.000000   0.000000
   16       28.254947     28.254951   0.000000   0.000000
   17       28.320877     28.320882   0.000000   0.000000
   18       31.727043     31.727042   0.000000   0.000000
   19       31.949154     31.949154   0.000000   0.000000
   20       33.161647     33.161649   0.000000   0.000000
   21       39.501297     39.501296   0.000000   0.000000
   22       41.929479     41.929478   0.000000   0.000000
   23       43.581427     43.581426   0.000000   0.000000
   24       47.729698     47.729702   0.000000   0.000000
 
  0.3333333E+00  0.1666667E+00  0.0000000E+00  0.1388889E-01
    1      -41.605475    -41.605478   1.000000   1.000000
    2      -41.418291    -41.418294   1.000000   1.000000
    3      -13.962644    -13.962644   1.000000   1.000000
    4       -0.370640     -0.370641   1.000000   1.000000
    5        0.656922      0.656921   1.000000   1.000000
    6        0.823142      0.823142   1.000000   1.000000
    7        7.992701      7.992699   0.000000   0.000000
    8       13.082315     13.082315   0.000000   0.000000
    9       13.761269     13.761271   0.000000   0.000000
   10       14.721004     14.721005   0.000000   0.000000
   11       16.048611     16.048612   0.000000   0.000000