 vasp.5.4.4.18Apr17-6-g9f103f2a35 (build Aug 12 2020 11:57:02) complex          
  
 executed on             LinuxIFC date 2021.01.31  04:38:06
 running on   24 total cores
 distrk:  each k-point on   24 cores,    1 groups
 distr:  one band on NCORES_PER_BAND=   1 cores,   24 groups


--------------------------------------------------------------------------------------------------------


 INCAR:
 POTCAR:    PAW_PBE Li_sv 10Sep2004               
 POTCAR:    PAW_PBE O 08Apr2002                   

 ----------------------------------------------------------------------------- 
|                                                                             |
|           W    W    AA    RRRRR   N    N  II  N    N   GGGG   !!!           |
|           W    W   A  A   R    R  NN   N  II  NN   N  G    G  !!!           |
|           W    W  A    A  R    R  N N  N  II  N N  N  G       !!!           |
|           W WW W  AAAAAA  RRRRR   N  N N  II  N  N N  G  GGG   !            |
|           WW  WW  A    A  R   R   N   NN  II  N   NN  G    G                |
|           W    W  A    A  R    R  N    N  II  N    N   GGGG   !!!           |
|                                                                             |
|      For optimal performance we recommend to set                            |
|        NCORE= 4 - approx SQRT( number of cores)                             |
|      NCORE specifies how many cores store one orbital (NPAR=cpu/NCORE).     |
|      This setting can  greatly improve the performance of VASP for DFT.     |
|      The default,   NCORE=1            might be grossly inefficient         |
|      on modern multi-core architectures or massively parallel machines.     |
|      Do your own testing !!!!                                               |
|      Unfortunately you need to use the default for GW and RPA calculations. |
|      (for HF NCORE is supported but not extensively tested yet)             |
|                                                                             |
 ----------------------------------------------------------------------------- 

 POTCAR:    PAW_PBE Li_sv 10Sep2004               
   VRHFIN =Li: 1s2s2p                                                           
   LEXCH  = PE                                                                  
   EATOM  =   202.7858 eV,   14.9043 Ry                                         
                                                                                
   TITEL  = PAW_PBE Li_sv 10Sep2004                                             
   LULTRA =        F    use ultrasoft PP ?                                      
   IUNSCR =        0    unscreen: 0-lin 1-nonlin 2-no                           
   RPACOR =    0.000    partial core radius                                     
   POMASS =    7.010; ZVAL   =    3.000    mass and valenz                      
   RCORE  =    1.700    outmost cutoff radius                                   
   RWIGS  =    2.050; RWIGS  =    1.085    wigner-seitz radius (au A)           
   ENMAX  =  499.034; ENMIN  =  374.276 eV                                      
   ICORE  =        2    local potential                                         
   LCOR   =        T    correct aug charges                                     
   LPAW   =        T    paw PP                                                  
   EAUG   =  628.945                                                            
   RMAX   =    1.732    core radius for proj-oper                               
   RAUG   =    1.300    factor for augmentation sphere                          
   RDEP   =    1.728    radius for radial grids                                 
   RDEPT  =    1.329    core radius for aug-charge                              
                                                                                
   Atomic configuration                                                         
    4 entries                                                                   
     n  l   j            E        occ.                                          
     1  0  0.50       -51.8549   2.0000                                         
     2  0  0.50        -2.8742   1.0000                                         
     2  1  0.50        -1.3606   0.0000                                         
     3  2  1.50        -1.3606   0.0000                                         
   Description                                                                  
     l       E           TYP  RCUT    TYP  RCUT                                 
     0    -51.8548813     23  1.400                                             
     0     -2.8742052     23  1.700                                             
     1     -1.3605826     23  1.400                                             
     2     -1.3605826     23  1.400                                             
  local pseudopotential read in
  atomic valenz-charges read in
  non local Contribution for L=           0  read in
    real space projection operators read in
  non local Contribution for L=           0  read in
    real space projection operators read in
  non local Contribution for L=           1  read in
    real space projection operators read in
    PAW grid and wavefunctions read in
 
   number of l-projection  operators is LMAX  =           3
   number of lm-projection operators is LMMAX =           5
 
 POTCAR:    PAW_PBE O 08Apr2002                   
   VRHFIN =O: s2p4                                                              
   LEXCH  = PE                                                                  
   EATOM  =   432.3788 eV,   31.7789 Ry                                         
                                                                                
   TITEL  = PAW_PBE O 08Apr2002                                                 
   LULTRA =        F    use ultrasoft PP ?                                      
   IUNSCR =        1    unscreen: 0-lin 1-nonlin 2-no                           
   RPACOR =    1.200    partial core radius                                     
   POMASS =   16.000; ZVAL   =    6.000    mass and valenz                      
   RCORE  =    1.520    outmost cutoff radius                                   
   RWIGS  =    1.550; RWIGS  =    0.820    wigner-seitz radius (au A)           
   ENMAX  =  400.000; ENMIN  =  300.000 eV                                      
   ICORE  =        2    local potential                                         
   LCOR   =        T    correct aug charges                                     
   LPAW   =        T    paw PP                                                  
   EAUG   =  605.392                                                            
   DEXC   =    0.000                                                            
   RMAX   =    1.553    core radius for proj-oper                               
   RAUG   =    1.300    factor for augmentation sphere                          
   RDEP   =    1.550    radius for radial grids                                 
   RDEPT  =    1.329    core radius for aug-charge                              
                                                                                
   Atomic configuration                                                         
    4 entries                                                                   
     n  l   j            E        occ.                                          
     1  0  0.50      -514.6923   2.0000                                         
     2  0  0.50       -23.9615   2.0000                                         
     2  1  0.50        -9.0305   4.0000                                         
     3  2  1.50        -9.5241   0.0000                                         
   Description                                                                  
     l       E           TYP  RCUT    TYP  RCUT                                 
     0    -23.9615318     23  1.200                                             
     0     -9.5240782     23  1.200                                             
     1     -9.0304911     23  1.520                                             
     1      8.1634956     23  1.520                                             
     2     -9.5240782      7  1.500                                             
  local pseudopotential read in
  partial core-charges read in
  partial kinetic energy density read in
  kinetic energy density of atom read in
  atomic valenz-charges read in
  non local Contribution for L=           0  read in
    real space projection operators read in
  non local Contribution for L=           0  read in
    real space projection operators read in
  non local Contribution for L=           1  read in
    real space projection operators read in
  non local Contribution for L=           1  read in
    real space projection operators read in
    PAW grid and wavefunctions read in
 
   number of l-projection  operators is LMAX  =           4
   number of lm-projection operators is LMMAX =           8
 

 ----------------------------------------------------------------------------- 
|                                                                             |
|  ADVICE TO THIS USER RUNNING 'VASP/VAMP'   (HEAR YOUR MASTER'S VOICE ...):  |
|                                                                             |
|      You have a (more or less) 'small supercell' and for smaller cells      |
|      it is recommended  to use the reciprocal-space projection scheme!      |
|      The real space optimization is not  efficient for small cells and it   |
|      is also less accurate ...                                              |
|      Therefore set LREAL=.FALSE. in the  INCAR file                         |
|                                                                             |
 ----------------------------------------------------------------------------- 

 Optimization of the real space projectors (new method)

 maximal supplied QI-value         = 22.11
 optimisation between [QCUT,QGAM] = [ 11.50, 23.22] = [ 37.02,150.92] Ry 
 Optimized for a Real-space Cutoff    1.08 Angstroem

   l    n(q)    QCUT    max X(q) W(low)/X(q) W(high)/X(q)  e(spline) 
   0      7    11.497    10.506    0.36E-04    0.62E-04    0.14E-07
   0      7    11.497     8.367    0.65E-04    0.14E-03    0.28E-07
   1      7    11.497     8.983    0.21E-03    0.43E-03    0.90E-07
 Optimization of the real space projectors (new method)

 maximal supplied QI-value         = 24.76
 optimisation between [QCUT,QGAM] = [ 11.64, 23.27] = [ 37.91,151.63] Ry 
 Optimized for a Real-space Cutoff    1.14 Angstroem

   l    n(q)    QCUT    max X(q) W(low)/X(q) W(high)/X(q)  e(spline) 
   0      8    11.635    20.381    0.10E-03    0.33E-03    0.24E-06
   0      8    11.635    15.268    0.11E-03    0.35E-03    0.26E-06
   1      7    11.635     5.964    0.24E-03    0.31E-03    0.30E-06
   1      7    11.635     5.382    0.22E-03    0.25E-03    0.26E-06
  PAW_PBE Li_sv 10Sep2004               :
 energy of atom  1       EATOM= -202.7858
 kinetic energy error for atom=    0.0130 (will be added to EATOM!!)
  PAW_PBE O 08Apr2002                   :
 energy of atom  2       EATOM= -432.3788
 kinetic energy error for atom=    0.0208 (will be added to EATOM!!)
 
 
 POSCAR: Li2 O1                                  
  positions in direct lattice
  No initial velocities read in
 exchange correlation table for  LEXCH =        8
   RHO(1)=    0.500       N(1)  =     2000
   RHO(2)=  100.500       N(2)  =     4000
 


--------------------------------------------------------------------------------------------------------


 ion  position               nearest neighbor table
   1  0.750  0.750  0.750-   3 2.02   3 2.02   3 2.02   3 2.02   2 2.33   2 2.33   2 2.33   2 2.33
                             2 2.33   2 2.33
   2  0.250  0.250  0.250-   3 2.02   3 2.02   3 2.02   3 2.02   1 2.33   1 2.33   1 2.33   1 2.33
                             1 2.33   1 2.33
   3  0.000  0.000  0.000-   1 2.02   1 2.02   1 2.02   1 2.02   2 2.02   2 2.02   2 2.02   2 2.02

 
  LATTYP: Found a face centered cubic cell.
 ALAT       =     4.6588420000
  
  Lattice vectors:
  
 A1 = (   0.0000000000,   2.3294210000,   2.3294210000)
 A2 = (   2.3294210000,   0.0000000000,   2.3294210000)
 A3 = (   2.3294210000,   2.3294210000,   0.0000000000)


Analysis of symmetry for initial positions (statically):
=====================================================================
 Subroutine PRICEL returns:
 Original cell was already a primitive cell.
 

 Routine SETGRP: Setting up the symmetry group for a 
 face centered cubic supercell.


 Subroutine GETGRP returns: Found 48 space group operations
 (whereof 48 operations were pure point group operations)
 out of a pool of 48 trial point group operations.


The static configuration has the point symmetry O_h .


Analysis of symmetry for dynamics (positions and initial velocities):
=====================================================================
 Subroutine PRICEL returns:
 Original cell was already a primitive cell.
 

 Routine SETGRP: Setting up the symmetry group for a 
 face centered cubic supercell.


 Subroutine GETGRP returns: Found 48 space group operations
 (whereof 48 operations were pure point group operations)
 out of a pool of 48 trial point group operations.


The dynamic configuration has the point symmetry O_h .


Analysis of structural, dynamic, and magnetic symmetry:
=====================================================================
 Subroutine PRICEL returns:
 Original cell was already a primitive cell.
 

 Routine SETGRP: Setting up the symmetry group for a 
 face centered cubic supercell.


 Subroutine GETGRP returns: Found 48 space group operations
 (whereof 48 operations were pure point group operations)
 out of a pool of 48 trial point group operations.


The magnetic configuration has the point symmetry O_h .


 Subroutine INISYM returns: Found 48 space group operations
 (whereof 48 operations are pure point group operations),
 and found     1 'primitive' translations

 
 
 KPOINTS: Fully automatic kpoint scheme           

Automatic generation of k-mesh.
 generate k-points for:   12   12   12
Space group operators:
 irot       det(A)        alpha          n_x          n_y          n_z        tau_x        tau_y        tau_z
    1     1.000000     0.000000     1.000000     0.000000     0.000000     0.000000     0.000000     0.000000
    2    -1.000000     0.000000     1.000000     0.000000     0.000000     0.000000     0.000000     0.000000
    3     1.000000   120.000000    -0.577350    -0.577350    -0.577350     0.000000     0.000000     0.000000
    4    -1.000000   120.000000    -0.577350    -0.577350    -0.577350     0.000000     0.000000     0.000000
    5     1.000000   120.000000     0.577350     0.577350     0.577350     0.000000     0.000000     0.000000
    6    -1.000000   120.000000     0.577350     0.577350     0.577350     0.000000     0.000000     0.000000
    7     1.000000    90.000000     0.000000     0.000000    -1.000000     0.000000     0.000000     0.000000
    8    -1.000000    90.000000     0.000000     0.000000    -1.000000     0.000000     0.000000     0.000000
    9     1.000000   180.000000     0.000000     0.707107     0.707107     0.000000     0.000000     0.000000
   10    -1.000000   180.000000     0.000000     0.707107     0.707107     0.000000     0.000000     0.000000
   11     1.000000    90.000000     0.000000     1.000000     0.000000     0.000000     0.000000     0.000000
   12    -1.000000    90.000000     0.000000     1.000000     0.000000     0.000000     0.000000     0.000000
   13     1.000000   180.000000     0.000000     0.000000     1.000000     0.000000     0.000000     0.000000
   14    -1.000000   180.000000     0.000000     0.000000     1.000000     0.000000     0.000000     0.000000
   15     1.000000   120.000000    -0.577350     0.577350     0.577350     0.000000     0.000000     0.000000
   16    -1.000000   120.000000    -0.577350     0.577350     0.577350     0.000000     0.000000     0.000000
   17     1.000000   120.000000    -0.577350     0.577350    -0.577350     0.000000     0.000000     0.000000
   18    -1.000000   120.000000    -0.577350     0.577350    -0.577350     0.000000     0.000000     0.000000
   19     1.000000    90.000000     0.000000     0.000000     1.000000     0.000000     0.000000     0.000000
   20    -1.000000    90.000000     0.000000     0.000000     1.000000     0.000000     0.000000     0.000000
   21     1.000000    90.000000    -1.000000     0.000000     0.000000     0.000000     0.000000     0.000000
   22    -1.000000    90.000000    -1.000000     0.000000     0.000000     0.000000     0.000000     0.000000
   23     1.000000   180.000000     0.707107     0.000000     0.707107     0.000000     0.000000     0.000000
   24    -1.000000   180.000000     0.707107     0.000000     0.707107     0.000000     0.000000     0.000000
   25     1.000000   120.000000     0.577350    -0.577350     0.577350     0.000000     0.000000     0.000000
   26    -1.000000   120.000000     0.577350    -0.577350     0.577350     0.000000     0.000000     0.000000
   27     1.000000   120.000000    -0.577350    -0.577350     0.577350     0.000000     0.000000     0.000000
   28    -1.000000   120.000000    -0.577350    -0.577350     0.577350     0.000000     0.000000     0.000000
   29     1.000000   180.000000     1.000000     0.000000     0.000000     0.000000     0.000000     0.000000
   30    -1.000000   180.000000     1.000000     0.000000     0.000000     0.000000     0.000000     0.000000
   31     1.000000    90.000000     0.000000    -1.000000     0.000000     0.000000     0.000000     0.000000
   32    -1.000000    90.000000     0.000000    -1.000000     0.000000     0.000000     0.000000     0.000000
   33     1.000000   180.000000     0.707107     0.707107     0.000000     0.000000     0.000000     0.000000
   34    -1.000000   180.000000     0.707107     0.707107     0.000000     0.000000     0.000000     0.000000
   35     1.000000    90.000000     1.000000     0.000000     0.000000     0.000000     0.000000     0.000000
   36    -1.000000    90.000000     1.000000     0.000000     0.000000     0.000000     0.000000     0.000000
   37     1.000000   120.000000     0.577350    -0.577350    -0.577350     0.000000     0.000000     0.000000
   38    -1.000000   120.000000     0.577350    -0.577350    -0.577350     0.000000     0.000000     0.000000
   39     1.000000   180.000000     0.000000     1.000000     0.000000     0.000000     0.000000     0.000000
   40    -1.000000   180.000000     0.000000     1.000000     0.000000     0.000000     0.000000     0.000000
   41     1.000000   120.000000     0.577350     0.577350    -0.577350     0.000000     0.000000     0.000000
   42    -1.000000   120.000000     0.577350     0.577350    -0.577350     0.000000     0.000000     0.000000
   43     1.000000   180.000000     0.000000    -0.707107     0.707107     0.000000     0.000000     0.000000
   44    -1.000000   180.000000     0.000000    -0.707107     0.707107     0.000000     0.000000     0.000000
   45     1.000000   180.000000     0.707107    -0.707107     0.000000     0.000000     0.000000     0.000000
   46    -1.000000   180.000000     0.707107    -0.707107     0.000000     0.000000     0.000000     0.000000
   47     1.000000   180.000000     0.707107     0.000000    -0.707107     0.000000     0.000000     0.000000
   48    -1.000000   180.000000     0.707107     0.000000    -0.707107     0.000000     0.000000     0.000000
 
 Subroutine IBZKPT returns following result:
 ===========================================
 
 Found     72 irreducible k-points:
 
 Following reciprocal coordinates:
            Coordinates               Weight
  0.000000  0.000000  0.000000      1.000000
  0.083333  0.000000  0.000000      8.000000
  0.166667  0.000000  0.000000      8.000000
  0.250000  0.000000  0.000000      8.000000
  0.333333  0.000000  0.000000      8.000000
  0.416667  0.000000  0.000000      8.000000
  0.500000  0.000000  0.000000      4.000000
  0.083333  0.083333  0.000000      6.000000
  0.166667  0.083333  0.000000     24.000000
  0.250000  0.083333  0.000000     24.000000
  0.333333  0.083333  0.000000     24.000000
  0.416667  0.083333  0.000000     24.000000
  0.500000  0.083333  0.000000     24.000000
 -0.416667  0.083333  0.000000     24.000000
 -0.333333  0.083333  0.000000     24.000000
 -0.250000  0.083333  0.000000     24.000000
 -0.166667  0.083333  0.000000     24.000000
 -0.083333  0.083333  0.000000     12.000000
  0.166667  0.166667  0.000000      6.000000
  0.250000  0.166667  0.000000     24.000000
  0.333333  0.166667  0.000000     24.000000
  0.416667  0.166667  0.000000     24.000000
  0.500000  0.166667  0.000000     24.000000
 -0.416667  0.166667  0.000000     24.000000
 -0.333333  0.166667  0.000000     24.000000
 -0.250000  0.166667  0.000000     24.000000
 -0.166667  0.166667  0.000000     12.000000
  0.250000  0.250000  0.000000      6.000000
  0.333333  0.250000  0.000000     24.000000
  0.416667  0.250000  0.000000     24.000000
  0.500000  0.250000  0.000000     24.000000
 -0.416667  0.250000  0.000000     24.000000
 -0.333333  0.250000  0.000000     24.000000
 -0.250000  0.250000  0.000000     12.000000
  0.333333  0.333333  0.000000      6.000000
  0.416667  0.333333  0.000000     24.000000
  0.500000  0.333333  0.000000     24.000000
 -0.416667  0.333333  0.000000     24.000000
 -0.333333  0.333333  0.000000     12.000000
  0.416667  0.416667  0.000000      6.000000
  0.500000  0.416667  0.000000     24.000000
 -0.416667  0.416667  0.000000     12.000000
  0.500000  0.500000  0.000000      3.000000
  0.250000  0.166667  0.083333     24.000000
  0.333333  0.166667  0.083333     48.000000
  0.416667  0.166667  0.083333     48.000000
  0.500000  0.166667  0.083333     48.000000
 -0.416667  0.166667  0.083333     24.000000
  0.333333  0.250000  0.083333     24.000000
  0.416667  0.250000  0.083333     48.000000
  0.500000  0.250000  0.083333     48.000000
 -0.416667  0.250000  0.083333     48.000000
 -0.333333  0.250000  0.083333     48.000000
 -0.250000  0.250000  0.083333     48.000000
 -0.166667  0.250000  0.083333     24.000000
  0.416667  0.333333  0.083333     24.000000
  0.500000  0.333333  0.083333     48.000000
 -0.416667  0.333333  0.083333     48.000000
 -0.333333  0.333333  0.083333     48.000000
 -0.250000  0.333333  0.083333     24.000000
  0.500000  0.416667  0.083333     24.000000
 -0.416667  0.416667  0.083333     48.000000
 -0.333333  0.416667  0.083333     24.000000
 -0.416667  0.500000  0.083333     12.000000
  0.500000  0.333333  0.166667     24.000000
 -0.416667  0.333333  0.166667     48.000000
 -0.333333  0.333333  0.166667     24.000000
 -0.416667  0.416667  0.166667     24.000000
 -0.333333  0.416667  0.166667     48.000000
 -0.250000  0.416667  0.166667     24.000000
 -0.333333  0.500000  0.166667     12.000000
 -0.250000  0.500000  0.250000      6.000000
 
 Following cartesian coordinates:
            Coordinates               Weight
  0.000000  0.000000  0.000000      1.000000
 -0.017887  0.017887  0.017887      8.000000
 -0.035774  0.035774  0.035774      8.000000
 -0.053661  0.053661  0.053661      8.000000
 -0.071549  0.071549  0.071549      8.000000
 -0.089436  0.089436  0.089436      8.000000
 -0.107323  0.107323  0.107323      4.000000
  0.000000  0.000000  0.035774      6.000000
 -0.017887  0.017887  0.053661     24.000000
 -0.035774  0.035774  0.071549     24.000000
 -0.053661  0.053661  0.089436     24.000000
 -0.071549  0.071549  0.107323     24.000000
 -0.089436  0.089436  0.125210     24.000000
  0.107323 -0.107323 -0.071549     24.000000
  0.089436 -0.089436 -0.053661     24.000000
  0.071549 -0.071549 -0.035774     24.000000
  0.053661 -0.053661 -0.017887     24.000000
  0.035774 -0.035774  0.000000     12.000000
  0.000000  0.000000  0.071549      6.000000
 -0.017887  0.017887  0.089436     24.000000
 -0.035774  0.035774  0.107323     24.000000
 -0.053661  0.053661  0.125210     24.000000
 -0.071549  0.071549  0.143097     24.000000
  0.125210 -0.125210 -0.053661     24.000000
  0.107323 -0.107323 -0.035774     24.000000
  0.089436 -0.089436 -0.017887     24.000000
  0.071549 -0.071549  0.000000     12.000000
  0.000000  0.000000  0.107323      6.000000
 -0.017887  0.017887  0.125210     24.000000
 -0.035774  0.035774  0.143097     24.000000
 -0.053661  0.053661  0.160984     24.000000
  0.143097 -0.143097 -0.035774     24.000000
  0.125210 -0.125210 -0.017887     24.000000
  0.107323 -0.107323  0.000000     12.000000
  0.000000  0.000000  0.143097      6.000000
 -0.017887  0.017887  0.160984     24.000000
 -0.035774  0.035774  0.178871     24.000000
  0.160984 -0.160984 -0.017887     24.000000
  0.143097 -0.143097  0.000000     12.000000
  0.000000  0.000000  0.178871      6.000000
 -0.017887  0.017887  0.196758     24.000000
  0.178871 -0.178871  0.000000     12.000000
  0.000000  0.000000  0.214646      3.000000
  0.000000  0.035774  0.071549     24.000000
 -0.017887  0.053661  0.089436     48.000000
 -0.035774  0.071549  0.107323     48.000000
 -0.053661  0.089436  0.125210     48.000000
  0.143097 -0.107323 -0.071549     24.000000
 -0.000000  0.035774  0.107323     24.000000
 -0.017887  0.053661  0.125210     48.000000
 -0.035774  0.071549  0.143097     48.000000
  0.160984 -0.125210 -0.053661     48.000000
  0.143097 -0.107323 -0.035774     48.000000
  0.125210 -0.089436 -0.017887     48.000000
  0.107323 -0.071549 -0.000000     24.000000
 -0.000000  0.035774  0.143097     24.000000
 -0.017887  0.053661  0.160984     48.000000
  0.178871 -0.143097 -0.035774     48.000000
  0.160984 -0.125210 -0.017887     48.000000
  0.143097 -0.107323 -0.000000     24.000000
 -0.000000  0.035774  0.178871     24.000000
  0.196758 -0.160984 -0.017887     48.000000
  0.178871 -0.143097  0.000000     24.000000
  0.214646 -0.178871  0.000000     12.000000
  0.000000  0.071549  0.143097     24.000000
  0.196758 -0.125210 -0.053661     48.000000
  0.178871 -0.107323 -0.035774     24.000000
  0.214646 -0.143097 -0.035774     24.000000
  0.196758 -0.125210 -0.017887     48.000000
  0.178871 -0.107323  0.000000     24.000000
  0.214646 -0.143097  0.000000     12.000000
  0.214646 -0.107323 -0.000000      6.000000
 
 TETIRR: Found    247 inequivalent tetrahedra from    10368


--------------------------------------------------------------------------------------------------------




 Dimension of arrays:
   k-points           NKPTS =     72   k-points in BZ     NKDIM =     72   number of bands    NBANDS=     24
   number of dos      NEDOS =    301   number of ions     NIONS =      3
   non local maximal  LDIM  =      4   non local SUM 2l+1 LMDIM =      8
   total plane-waves  NPLWV =  21952
   max r-space proj   IRMAX =   5457   max aug-charges    IRDMAX=  11464
   dimension x,y,z NGX =    28 NGY =   28 NGZ =   28
   dimension x,y,z NGXF=    56 NGYF=   56 NGZF=   56
   support grid    NGXF=    56 NGYF=   56 NGZF=   56
   ions per type =               2   1
   NGX,Y,Z   is equivalent  to a cutoff of  14.13, 14.13, 14.13 a.u.
   NGXF,Y,Z  is equivalent  to a cutoff of  28.26, 28.26, 28.26 a.u.

 SYSTEM =  unknown system                          
 POSCAR =  Li2 O1                                  

 Startparameter for this run:
   NWRITE =      2    write-flag & timer
   PREC   = accura    normal or accurate (medium, high low for compatibility)
   ISTART =      0    job   : 0-new  1-cont  2-samecut
   ICHARG =      2    charge: 1-file 2-atom 10-const
   ISPIN  =      2    spin polarized calculation?
   LNONCOLLINEAR =      F non collinear calculations
   LSORBIT =      F    spin-orbit coupling
   INIWAV =      1    electr: 0-lowe 1-rand  2-diag
   LASPH  =      T    aspherical Exc in radial PAW
   METAGGA=      F    non-selfconsistent MetaGGA calc.

 Electronic Relaxation 1
   ENCUT  =  520.0 eV  38.22 Ry    6.18 a.u.   6.13  6.13  6.13*2*pi/ulx,y,z
   ENINI  =  520.0     initial cutoff
   ENAUG  =  628.9 eV  augmentation charge cutoff
   NELM   =    100;   NELMIN=  2; NELMDL= -5     # of ELM steps 
   EDIFF  = 0.2E-03   stopping-criterion for ELM
   LREAL  =      T    real-space projection
   NLSPLINE    = F    spline interpolate recip. space projectors
   LCOMPAT=      F    compatible to vasp.4.4
   GGA_COMPAT  = T    GGA compatible to vasp.4.4-vasp.4.6
   LMAXPAW     = -100 max onsite density
   LMAXMIX     =    2 max onsite mixed and CHGCAR
   VOSKOWN=      0    Vosko Wilk Nusair interpolation
   ROPT   =   -0.00025  -0.00025
 Ionic relaxation
   EDIFFG = 0.2E-02   stopping-criterion for IOM
   NSW    =     99    number of steps for IOM
   NBLOCK =      1;   KBLOCK =     99    inner block; outer block 
   IBRION =      2    ionic relax: 0-MD 1-quasi-New 2-CG
   NFREE  =      1    steps in history (QN), initial steepest desc. (CG)
   ISIF   =      3    stress and relaxation
   IWAVPR =     11    prediction:  0-non 1-charg 2-wave 3-comb
   ISYM   =      2    0-nonsym 1-usesym 2-fastsym
   LCORR  =      T    Harris-Foulkes like correction to forces

   POTIM  = 0.5000    time-step for ionic-motion
   TEIN   =    0.0    initial temperature
   TEBEG  =    0.0;   TEEND  =   0.0 temperature during run
   SMASS  =  -3.00    Nose mass-parameter (am)
   estimated Nose-frequenzy (Omega)   =  0.10E-29 period in steps =****** mass=  -0.248E-27a.u.
   SCALEE = 1.0000    scale energy and forces
   NPACO  =    256;   APACO  = 16.0  distance and # of slots for P.C.
   PSTRESS=    0.0 pullay stress

  Mass of Ions in am
   POMASS =   7.01 16.00
  Ionic Valenz
   ZVAL   =   3.00  6.00
  Atomic Wigner-Seitz radii
   RWIGS  =  -1.00 -1.00
  virtual crystal weights 
   VCA    =   1.00  1.00
   NELECT =      12.0000    total number of electrons
   NUPDOWN=      -1.0000    fix difference up-down

 DOS related values:
   EMIN   =  10.00;   EMAX   =-10.00  energy-range for DOS
   EFERMI =   0.00
   ISMEAR =    -5;   SIGMA  =   0.05  broadening in eV -4-tet -1-fermi 0-gaus

 Electronic relaxation 2 (details)
   IALGO  =     68    algorithm
   LDIAG  =      T    sub-space diagonalisation (order eigenvalues)
   LSUBROT=      F    optimize rotation matrix (better conditioning)
   TURBO    =      0    0=normal 1=particle mesh
   IRESTART =      0    0=no restart 2=restart with 2 vectors
   NREBOOT  =      0    no. of reboots
   NMIN     =      0    reboot dimension
   EREF     =   0.00    reference energy to select bands
   IMIX   =      4    mixing-type and parameters
     AMIX     =   0.40;   BMIX     =  1.00
     AMIX_MAG =   1.60;   BMIX_MAG =  1.00
     AMIN     =   0.10
     WC   =   100.;   INIMIX=   1;  MIXPRE=   1;  MAXMIX= -45

 Intra band minimization:
   WEIMIN = 0.0010     energy-eigenvalue tresh-hold
   EBREAK =  0.16E-05  absolut break condition
   DEPER  =   0.30     relativ break condition  

   TIME   =   0.40     timestep for ELM

  volume/ion in A,a.u.               =       8.43        56.87
  Fermi-wavevector in a.u.,A,eV,Ry     =   1.277058  2.413290 22.189428  1.630877
  Thomas-Fermi vector in A             =   2.409679
 
 Write flags
   LWAVE        =      F    write WAVECAR
   LDOWNSAMPLE  =      F    k-point downsampling of WAVECAR
   LCHARG       =      T    write CHGCAR
   LVTOT        =      F    write LOCPOT, total local potential
   LVHAR        =      F    write LOCPOT, Hartree potential only
   LELF         =      F    write electronic localiz. function (ELF)
   LORBIT       =     11    0 simple, 1 ext, 2 COOP (PROOUT), +10 PAW based schemes


 Dipole corrections
   LMONO  =      F    monopole corrections only (constant potential shift)
   LDIPOL =      F    correct potential (dipole corrections)
   IDIPOL =      0    1-x, 2-y, 3-z, 4-all directions 
   EPSILON=  1.0000000 bulk dielectric constant

 Exchange correlation treatment:
   GGA     =    --    GGA type
   LEXCH   =     8    internal setting for exchange type
   VOSKOWN=      0    Vosko Wilk Nusair interpolation
   LHFCALC =     F    Hartree Fock is set to
   LHFONE  =     F    Hartree Fock one center treatment
   AEXX    =    0.0000 exact exchange contribution

 Linear response parameters
   LEPSILON=     F    determine dielectric tensor
   LRPA    =     F    only Hartree local field effects (RPA)
   LNABLA  =     F    use nabla operator in PAW spheres
   LVEL    =     F    velocity operator in full k-point grid
   LINTERFAST=   F  fast interpolation
   KINTER  =     0    interpolate to denser k-point grid
   CSHIFT  =0.1000    complex shift for real part using Kramers Kronig
   OMEGAMAX=  -1.0    maximum frequency
   DEG_THRESHOLD= 0.2000000E-02 threshold for treating states as degnerate
   RTIME   =   -0.100 relaxation time in fs
  (WPLASMAI=    0.000 imaginary part of plasma frequency in eV, 0.658/RTIME)
   DFIELD  = 0.0000000 0.0000000 0.0000000 field for delta impulse in time
 
 Orbital magnetization related:
   ORBITALMAG=     F  switch on orbital magnetization
   LCHIMAG   =     F  perturbation theory with respect to B field
   DQ        =  0.001000  dq finite difference perturbation B field
   LLRAUG    =     F  two centre corrections for induced B field



--------------------------------------------------------------------------------------------------------


 conjugate gradient relaxation of ions
 charge density and potential will be updated during run
 spin polarized calculation
 RMM-DIIS sequential band-by-band and
  variant of blocked Davidson during initial phase
 perform sub-space diagonalisation
    before iterative eigenvector-optimisation
 modified Broyden-mixing scheme, WC =      100.0
 initial mixing is a Kerker type mixing with AMIX =  0.4000 and BMIX =      1.0000
 Hartree-type preconditioning will be used
 using additional bands           18
 real space projection scheme for non local part
 use partial core corrections
 calculate Harris-corrections to forces 
   (improved forces if not selfconsistent)
 use gradient corrections 
 use of overlap-Matrix (Vanderbilt PP)
 Fermi weights with tetrahedron method with Bloechl corrections


--------------------------------------------------------------------------------------------------------


  energy-cutoff  :      520.00
  volume of cell :       25.28
      direct lattice vectors                 reciprocal lattice vectors
     0.000000000  2.329421000  2.329421000    -0.214645614  0.214645614  0.214645614
     2.329421000  0.000000000  2.329421000     0.214645614 -0.214645614  0.214645614
     2.329421000  2.329421000  0.000000000     0.214645614  0.214645614 -0.214645614

  length of vectors
     3.294298771  3.294298771  3.294298771     0.371777108  0.371777108  0.371777108


 
 k-points in units of 2pi/SCALE and weight: Fully automatic kpoint scheme           
   0.00000000  0.00000000  0.00000000       0.001
  -0.01788713  0.01788713  0.01788713       0.005
  -0.03577427  0.03577427  0.03577427       0.005
  -0.05366140  0.05366140  0.05366140       0.005
  -0.07154854  0.07154854  0.07154854       0.005
  -0.08943567  0.08943567  0.08943567       0.005
  -0.10732281  0.10732281  0.10732281       0.002
   0.00000000  0.00000000  0.03577427       0.003
  -0.01788713  0.01788713  0.05366140       0.014
  -0.03577427  0.03577427  0.07154854       0.014
  -0.05366140  0.05366140  0.08943567       0.014
  -0.07154854  0.07154854  0.10732281       0.014
  -0.08943567  0.08943567  0.12520994       0.014
   0.10732281 -0.10732281 -0.07154854       0.014
   0.08943567 -0.08943567 -0.05366140       0.014
   0.07154854 -0.07154854 -0.03577427       0.014
   0.05366140 -0.05366140 -0.01788713       0.014
   0.03577427 -0.03577427  0.00000000       0.007
   0.00000000  0.00000000  0.07154854       0.003
  -0.01788713  0.01788713  0.08943567       0.014
  -0.03577427  0.03577427  0.10732281       0.014
  -0.05366140  0.05366140  0.12520994       0.014
  -0.07154854  0.07154854  0.14309708       0.014
   0.12520994 -0.12520994 -0.05366140       0.014
   0.10732281 -0.10732281 -0.03577427       0.014
   0.08943567 -0.08943567 -0.01788713       0.014
   0.07154854 -0.07154854  0.00000000       0.007
   0.00000000  0.00000000  0.10732281       0.003
  -0.01788713  0.01788713  0.12520994       0.014
  -0.03577427  0.03577427  0.14309708       0.014
  -0.05366140  0.05366140  0.16098421       0.014
   0.14309708 -0.14309708 -0.03577427       0.014
   0.12520994 -0.12520994 -0.01788713       0.014
   0.10732281 -0.10732281  0.00000000       0.007
   0.00000000  0.00000000  0.14309708       0.003
  -0.01788713  0.01788713  0.16098421       0.014
  -0.03577427  0.03577427  0.17887134       0.014
   0.16098421 -0.16098421 -0.01788713       0.014
   0.14309708 -0.14309708  0.00000000       0.007
   0.00000000  0.00000000  0.17887134       0.003
  -0.01788713  0.01788713  0.19675848       0.014
   0.17887134 -0.17887134  0.00000000       0.007
   0.00000000  0.00000000  0.21464561       0.002
   0.00000000  0.03577427  0.07154854       0.014
  -0.01788713  0.05366140  0.08943567       0.028
  -0.03577427  0.07154854  0.10732281       0.028
  -0.05366140  0.08943567  0.12520994       0.028
   0.14309708 -0.10732281 -0.07154854       0.014
  -0.00000000  0.03577427  0.10732281       0.014
  -0.01788713  0.05366140  0.12520994       0.028
  -0.03577427  0.07154854  0.14309708       0.028
   0.16098421 -0.12520994 -0.05366140       0.028
   0.14309708 -0.10732281 -0.03577427       0.028
   0.12520994 -0.08943567 -0.01788713       0.028
   0.10732281 -0.07154854 -0.00000000       0.014
  -0.00000000  0.03577427  0.14309708       0.014
  -0.01788713  0.05366140  0.16098421       0.028
   0.17887134 -0.14309708 -0.03577427       0.028
   0.16098421 -0.12520994 -0.01788713       0.028
   0.14309708 -0.10732281 -0.00000000       0.014
  -0.00000000  0.03577427  0.17887134       0.014
   0.19675848 -0.16098421 -0.01788713       0.028
   0.17887134 -0.14309708  0.00000000       0.014
   0.21464561 -0.17887134  0.00000000       0.007
   0.00000000  0.07154854  0.14309708       0.014
   0.19675848 -0.12520994 -0.05366140       0.028
   0.17887134 -0.10732281 -0.03577427       0.014
   0.21464561 -0.14309708 -0.03577427       0.014
   0.19675848 -0.12520994 -0.01788713       0.028
   0.17887134 -0.10732281  0.00000000       0.014
   0.21464561 -0.14309708  0.00000000       0.007
   0.21464561 -0.10732281 -0.00000000       0.003
 
 k-points in reciprocal lattice and weights: Fully automatic kpoint scheme           
   0.00000000  0.00000000  0.00000000       0.001
   0.08333333  0.00000000  0.00000000       0.005
   0.16666667  0.00000000  0.00000000       0.005
   0.25000000  0.00000000  0.00000000       0.005
   0.33333333  0.00000000  0.00000000       0.005
   0.41666667  0.00000000  0.00000000       0.005
   0.50000000  0.00000000  0.00000000       0.002
   0.08333333  0.08333333  0.00000000       0.003
   0.16666667  0.08333333  0.00000000       0.014
   0.25000000  0.08333333  0.00000000       0.014
   0.33333333  0.08333333  0.00000000       0.014
   0.41666667  0.08333333  0.00000000       0.014
   0.50000000  0.08333333  0.00000000       0.014
  -0.41666667  0.08333333  0.00000000       0.014
  -0.33333333  0.08333333  0.00000000       0.014
  -0.25000000  0.08333333  0.00000000       0.014
  -0.16666667  0.08333333  0.00000000       0.014
  -0.08333333  0.08333333  0.00000000       0.007
   0.16666667  0.16666667  0.00000000       0.003
   0.25000000  0.16666667  0.00000000       0.014
   0.33333333  0.16666667  0.00000000       0.014
   0.41666667  0.16666667  0.00000000       0.014
   0.50000000  0.16666667  0.00000000       0.014
  -0.41666667  0.16666667  0.00000000       0.014
  -0.33333333  0.16666667  0.00000000       0.014
  -0.25000000  0.16666667  0.00000000       0.014
  -0.16666667  0.16666667  0.00000000       0.007
   0.25000000  0.25000000  0.00000000       0.003
   0.33333333  0.25000000  0.00000000       0.014
   0.41666667  0.25000000  0.00000000       0.014
   0.50000000  0.25000000  0.00000000       0.014
  -0.41666667  0.25000000  0.00000000       0.014
  -0.33333333  0.25000000  0.00000000       0.014
  -0.25000000  0.25000000  0.00000000       0.007
   0.33333333  0.33333333  0.00000000       0.003
   0.41666667  0.33333333  0.00000000       0.014
   0.50000000  0.33333333  0.00000000       0.014
  -0.41666667  0.33333333  0.00000000       0.014
  -0.33333333  0.33333333  0.00000000       0.007
   0.41666667  0.41666667  0.00000000       0.003
   0.50000000  0.41666667  0.00000000       0.014
  -0.41666667  0.41666667  0.00000000       0.007
   0.50000000  0.50000000  0.00000000       0.002
   0.25000000  0.16666667  0.08333333       0.014
   0.33333333  0.16666667  0.08333333       0.028
   0.41666667  0.16666667  0.08333333       0.028
   0.50000000  0.16666667  0.08333333       0.028
  -0.41666667  0.16666667  0.08333333       0.014
   0.33333333  0.25000000  0.08333333       0.014
   0.41666667  0.25000000  0.08333333       0.028
   0.50000000  0.25000000  0.08333333       0.028
  -0.41666667  0.25000000  0.08333333       0.028
  -0.33333333  0.25000000  0.08333333       0.028
  -0.25000000  0.25000000  0.08333333       0.028
  -0.16666667  0.25000000  0.08333333       0.014
   0.41666667  0.33333333  0.08333333       0.014
   0.50000000  0.33333333  0.08333333       0.028
  -0.41666667  0.33333333  0.08333333       0.028
  -0.33333333  0.33333333  0.08333333       0.028
  -0.25000000  0.33333333  0.08333333       0.014
   0.50000000  0.41666667  0.08333333       0.014
  -0.41666667  0.41666667  0.08333333       0.028
  -0.33333333  0.41666667  0.08333333       0.014
  -0.41666667  0.50000000  0.08333333       0.007
   0.50000000  0.33333333  0.16666667       0.014
  -0.41666667  0.33333333  0.16666667       0.028
  -0.33333333  0.33333333  0.16666667       0.014
  -0.41666667  0.41666667  0.16666667       0.014
  -0.33333333  0.41666667  0.16666667       0.028
  -0.25000000  0.41666667  0.16666667       0.014
  -0.33333333  0.50000000  0.16666667       0.007
  -0.25000000  0.50000000  0.25000000       0.003
 
 position of ions in fractional coordinates (direct lattice) 
   0.75000000  0.75000000  0.75000000
   0.25000000  0.25000000  0.25000000
   0.00000000  0.00000000  0.00000000
 
 position of ions in cartesian coordinates  (Angst):
   3.49413150  3.49413150  3.49413150
   1.16471050  1.16471050  1.16471050
   0.00000000  0.00000000  0.00000000
 


--------------------------------------------------------------------------------------------------------


 k-point  1 :   0.0000 0.0000 0.0000  plane waves:     701
 k-point  2 :   0.0833 0.0000 0.0000  plane waves:     679
 k-point  3 :   0.1667 0.0000 0.0000  plane waves:     673
 k-point  4 :   0.2500 0.0000 0.0000  plane waves:     670
 k-point  5 :   0.3333 0.0000 0.0000  plane waves:     685
 k-point  6 :   0.4167 0.0000 0.0000  plane waves:     679
 k-point  7 :   0.5000 0.0000 0.0000  plane waves:     700
 k-point  8 :   0.0833 0.0833 0.0000  plane waves:     681
 k-point  9 :   0.1667 0.0833 0.0000  plane waves:     676
 k-point 10 :   0.2500 0.0833 0.0000  plane waves:     675
 k-point 11 :   0.3333 0.0833 0.0000  plane waves:     675
 k-point 12 :   0.4167 0.0833 0.0000  plane waves:     673
 k-point 13 :   0.5000 0.0833 0.0000  plane waves:     685
 k-point 14 :  -0.4167 0.0833 0.0000  plane waves:     680
 k-point 15 :  -0.3333 0.0833 0.0000  plane waves:     675
 k-point 16 :  -0.2500 0.0833 0.0000  plane waves:     676
 k-point 17 :  -0.1667 0.0833 0.0000  plane waves:     673
 k-point 18 :  -0.0833 0.0833 0.0000  plane waves:     676
 k-point 19 :   0.1667 0.1667 0.0000  plane waves:     681
 k-point 20 :   0.2500 0.1667 0.0000  plane waves:     676
 k-point 21 :   0.3333 0.1667 0.0000  plane waves:     680
 k-point 22 :   0.4167 0.1667 0.0000  plane waves:     680
 k-point 23 :   0.5000 0.1667 0.0000  plane waves:     678
 k-point 24 :  -0.4167 0.1667 0.0000  plane waves:     681
 k-point 25 :  -0.3333 0.1667 0.0000  plane waves:     677
 k-point 26 :  -0.2500 0.1667 0.0000  plane waves:     674
 k-point 27 :  -0.1667 0.1667 0.0000  plane waves:     674
 k-point 28 :   0.2500 0.2500 0.0000  plane waves:     681
 k-point 29 :   0.3333 0.2500 0.0000  plane waves:     680
 k-point 30 :   0.4167 0.2500 0.0000  plane waves:     682
 k-point 31 :   0.5000 0.2500 0.0000  plane waves:     684
 k-point 32 :  -0.4167 0.2500 0.0000  plane waves:     685
 k-point 33 :  -0.3333 0.2500 0.0000  plane waves:     684
 k-point 34 :  -0.2500 0.2500 0.0000  plane waves:     676
 k-point 35 :   0.3333 0.3333 0.0000  plane waves:     680
 k-point 36 :   0.4167 0.3333 0.0000  plane waves:     683
 k-point 37 :   0.5000 0.3333 0.0000  plane waves:     686
 k-point 38 :  -0.4167 0.3333 0.0000  plane waves:     687
 k-point 39 :  -0.3333 0.3333 0.0000  plane waves:     680
 k-point 40 :   0.4167 0.4167 0.0000  plane waves:     676
 k-point 41 :   0.5000 0.4167 0.0000  plane waves:     685
 k-point 42 :  -0.4167 0.4167 0.0000  plane waves:     684
 k-point 43 :   0.5000 0.5000 0.0000  plane waves:     692
 k-point 44 :   0.2500 0.1667 0.0833  plane waves:     678
 k-point 45 :   0.3333 0.1667 0.0833  plane waves:     673
 k-point 46 :   0.4167 0.1667 0.0833  plane waves:     674
 k-point 47 :   0.5000 0.1667 0.0833  plane waves:     680
 k-point 48 :  -0.4167 0.1667 0.0833  plane waves:     682
 k-point 49 :   0.3333 0.2500 0.0833  plane waves:     678
 k-point 50 :   0.4167 0.2500 0.0833  plane waves:     680
 k-point 51 :   0.5000 0.2500 0.0833  plane waves:     679
 k-point 52 :  -0.4167 0.2500 0.0833  plane waves:     683
 k-point 53 :  -0.3333 0.2500 0.0833  plane waves:     681
 k-point 54 :  -0.2500 0.2500 0.0833  plane waves:     683
 k-point 55 :  -0.1667 0.2500 0.0833  plane waves:     683
 k-point 56 :   0.4167 0.3333 0.0833  plane waves:     673
 k-point 57 :   0.5000 0.3333 0.0833  plane waves:     678
 k-point 58 :  -0.4167 0.3333 0.0833  plane waves:     686
 k-point 59 :  -0.3333 0.3333 0.0833  plane waves:     687
 k-point 60 :  -0.2500 0.3333 0.0833  plane waves:     685
 k-point 61 :   0.5000 0.4167 0.0833  plane waves:     677
 k-point 62 :  -0.4167 0.4167 0.0833  plane waves:     685
 k-point 63 :  -0.3333 0.4167 0.0833  plane waves:     684
 k-point 64 :  -0.4167 0.5000 0.0833  plane waves:     690
 k-point 65 :   0.5000 0.3333 0.1667  plane waves:     676
 k-point 66 :  -0.4167 0.3333 0.1667  plane waves:     680
 k-point 67 :  -0.3333 0.3333 0.1667  plane waves:     692
 k-point 68 :  -0.4167 0.4167 0.1667  plane waves:     686
 k-point 69 :  -0.3333 0.4167 0.1667  plane waves:     689
 k-point 70 :  -0.2500 0.4167 0.1667  plane waves:     690
 k-point 71 :  -0.3333 0.5000 0.1667  plane waves:     690
 k-point 72 :  -0.2500 0.5000 0.2500  plane waves:     684

 maximum and minimum number of plane-waves per node :       701      670

 maximum number of plane-waves:       701
 maximum index in each direction: 
   IXMAX=    6   IYMAX=    6   IZMAX=    6
   IXMIN=   -6   IYMIN=   -6   IZMIN=   -6


 serial   3D FFT for wavefunctions
 parallel 3D FFT for charge:
    minimum data exchange during FFTs selected (reduces bandwidth)


 total amount of memory used by VASP MPI-rank0    35724. kBytes
=======================================================================

   base      :      30000. kBytes
   nonlr-proj:       1030. kBytes
   fftplans  :        407. kBytes
   grid      :       2555. kBytes
   one-center:         18. kBytes
   wavefun   :       1714. kBytes
 
     INWAV:  cpu time    0.0000: real time    0.0001
 Broyden mixing: mesh for mixing (old mesh)
   NGX = 13   NGY = 13   NGZ = 13
  (NGX  = 56   NGY  = 56   NGZ  = 56)
  gives a total of   2197 points

 initial charge density was supplied:
 charge density of overlapping atoms calculated
 number of electron      12.0000000 magnetization       0.0000000
 keeping initial charge density in first step


--------------------------------------------------------------------------------------------------------


 Maximum index for non-local projection operator         5281
 Maximum index for augmentation-charges          937 (set IRDMAX)


--------------------------------------------------------------------------------------------------------


 First call to EWALD:  gamma=   0.604
 Maximum number of real-space cells 3x 3x 3
 Maximum number of reciprocal cells 3x 3x 3

    FEWALD:  cpu time    0.0019: real time    0.0031


--------------------------------------- Iteration      1(   1)  ---------------------------------------


    POTLOK:  cpu time    0.0366: real time    0.1095
    SETDIJ:  cpu time    0.2257: real time    0.6773
     EDDAV:  cpu time    2.5020: real time    7.5418
 BZINTS: Fermi energy:  4.024298; 12.000000 electrons
         Band energy:-194.109867;  BLOECHL correction:  0.000000
       DOS:  cpu time    0.0084: real time    0.0154
    --------------------------------------------
      LOOP:  cpu time    2.7727: real time    8.3440

 eigenvalue-minimisations  :  6936
 total energy-change (2. order) : 0.2776678E+01  (-0.6946936E+03)
 number of electron      12.0000000 magnetization       0.0000000
 augmentation part       12.0000000 magnetization       0.0000000

 Free energy of the ion-electron system (eV)
  ---------------------------------------------------
  alpha Z        PSCENC =        18.27813350
  Ewald energy   TEWEN  =      -502.16616577
  -Hartree energ DENC   =      -177.47872663
  -exchange      EXHF   =         0.00000000
  -V(xc)+E(xc)   XCENC  =        52.95917533
  PAW double counting   =       506.07272715     -538.68227925
  entropy T*S    EENTRO =         0.00000000
  eigenvalues    EBANDS =      -194.10986703
  atomic energy  EATOM  =       837.90368042
  Solvation  Ediel_sol  =         0.00000000
  ---------------------------------------------------
  free energy    TOTEN  =         2.77667771 eV

  energy without entropy =        2.77667771  energy(sigma->0) =        2.77667771


--------------------------------------------------------------------------------------------------------




--------------------------------------- Iteration      1(   2)  ---------------------------------------


     EDDAV:  cpu time    3.5069: real time   10.5716
 BZINTS: Fermi energy: -1.798230; 12.000000 electrons
         Band energy:-212.962493;  BLOECHL correction:  0.000000
       DOS:  cpu time    0.0038: real time    0.0068
    --------------------------------------------
      LOOP:  cpu time    3.5107: real time   10.5784

 eigenvalue-minimisations  : 10992
 total energy-change (2. order) :-0.1885263E+02  (-0.1885263E+02)
 number of electron      12.0000000 magnetization       0.0000000
 augmentation part       12.0000000 magnetization       0.0000000

 Free energy of the ion-electron system (eV)
  ---------------------------------------------------
  alpha Z        PSCENC =        18.27813350
  Ewald energy   TEWEN  =      -502.16616577
  -Hartree energ DENC   =      -177.47872663
  -exchange      EXHF   =         0.00000000
  -V(xc)+E(xc)   XCENC  =        52.95917533
  PAW double counting   =       506.07272715     -538.68227925
  entropy T*S    EENTRO =         0.00000000
  eigenvalues    EBANDS =      -212.96249293
  atomic energy  EATOM  =       837.90368042
  Solvation  Ediel_sol  =         0.00000000
  ---------------------------------------------------
  free energy    TOTEN  =       -16.07594819 eV

  energy without entropy =      -16.07594819  energy(sigma->0) =      -16.07594819


--------------------------------------------------------------------------------------------------------




--------------------------------------- Iteration      1(   3)  ---------------------------------------


     EDDAV:  cpu time    2.1890: real time    6.5978
 BZINTS: Fermi energy: -1.762956; 12.000000 electrons
         Band energy:-213.006264;  BLOECHL correction:  0.000000
       DOS:  cpu time    0.0039: real time    0.0042
    --------------------------------------------
      LOOP:  cpu time    2.1929: real time    6.6020

 eigenvalue-minimisations  :  6912
 total energy-change (2. order) :-0.4377138E-01  (-0.4377138E-01)
 number of electron      12.0000000 magnetization       0.0000000
 augmentation part       12.0000000 magnetization       0.0000000

 Free energy of the ion-electron system (eV)
  ---------------------------------------------------
  alpha Z        PSCENC =        18.27813350
  Ewald energy   TEWEN  =      -502.16616577
  -Hartree energ DENC   =      -177.47872663
  -exchange      EXHF   =         0.00000000
  -V(xc)+E(xc)   XCENC  =        52.95917533
  PAW double counting   =       506.07272715     -538.68227925
  entropy T*S    EENTRO =         0.00000000
  eigenvalues    EBANDS =      -213.00626431
  atomic energy  EATOM  =       837.90368042
  Solvation  Ediel_sol  =         0.00000000
  ---------------------------------------------------
  free energy    TOTEN  =       -16.11971957 eV

  energy without entropy =      -16.11971957  energy(sigma->0) =      -16.11971957


--------------------------------------------------------------------------------------------------------




--------------------------------------- Iteration      1(   4)  ---------------------------------------


     EDDAV:  cpu time    4.4171: real time   13.3269
 BZINTS: Fermi energy: -1.768583; 12.000000 electrons
         Band energy:-213.006346;  BLOECHL correction:  0.000000
       DOS:  cpu time    0.0041: real time    0.0056
    --------------------------------------------
      LOOP:  cpu time    4.4211: real time   13.3325

 eigenvalue-minimisations  : 13152
 total energy-change (2. order) :-0.8124946E-04  (-0.8124946E-04)
 number of electron      12.0000000 magnetization       0.0000000
 augmentation part       12.0000000 magnetization       0.0000000

 Free energy of the ion-electron system (eV)
  ---------------------------------------------------
  alpha Z        PSCENC =        18.27813350
  Ewald energy   TEWEN  =      -502.16616577
  -Hartree energ DENC   =      -177.47872663
  -exchange      EXHF   =         0.00000000
  -V(xc)+E(xc)   XCENC  =        52.95917533
  PAW double counting   =       506.07272715     -538.68227925
  entropy T*S    EENTRO =         0.00000000
  eigenvalues    EBANDS =      -213.00634556
  atomic energy  EATOM  =       837.90368042
  Solvation  Ediel_sol  =         0.00000000
  ---------------------------------------------------
  free energy    TOTEN  =       -16.11980082 eV

  energy without entropy =      -16.11980082  energy(sigma->0) =      -16.11980082


--------------------------------------------------------------------------------------------------------




--------------------------------------- Iteration      1(   5)  ---------------------------------------


     EDDAV:  cpu time    2.6663: real time    8.0422
 BZINTS: Fermi energy: -1.768764; 12.000000 electrons
         Band energy:-213.006346;  BLOECHL correction:  0.000000
       DOS:  cpu time    0.0046: real time    0.0085
    CHARGE:  cpu time    0.0561: real time    0.1845
    MIXING:  cpu time    0.0041: real time    0.0145
    --------------------------------------------
      LOOP:  cpu time    2.7313: real time    8.2498

 eigenvalue-minimisations  :  7056
 total energy-change (2. order) :-0.1370154E-08  (-0.1369854E-08)
 number of electron      11.9999994 magnetization       0.0000000
 augmentation part        2.7691428 magnetization      -0.0000000

 Broyden mixing:
  rms(total) = 0.74737E+00    rms(broyden)= 0.74720E+00
  rms(prec ) = 0.28139E+01
  weight for this iteration     100.00

 Free energy of the ion-electron system (eV)
  ---------------------------------------------------
  alpha Z        PSCENC =        18.27813350
  Ewald energy   TEWEN  =      -502.16616577
  -Hartree energ DENC   =      -177.47872663
  -exchange      EXHF   =         0.00000000
  -V(xc)+E(xc)   XCENC  =        52.95917533
  PAW double counting   =       506.07272715     -538.68227925
  entropy T*S    EENTRO =         0.00000000
  eigenvalues    EBANDS =      -213.00634556
  atomic energy  EATOM  =       837.90368042
  Solvation  Ediel_sol  =         0.00000000
  ---------------------------------------------------
  free energy    TOTEN  =       -16.11980082 eV

  energy without entropy =      -16.11980082  energy(sigma->0) =      -16.11980082


--------------------------------------------------------------------------------------------------------




--------------------------------------- Iteration      1(   6)  ---------------------------------------


    POTLOK:  cpu time    0.0176: real time    0.0379
    SETDIJ:  cpu time    0.2523: real time    0.7635
    EDDIAG:  cpu time    2.4095: real time    7.2627
  RMM-DIIS:  cpu time    0.5252: real time    1.5822
    ORTHCH:  cpu time    0.2173: real time    0.6543
 BZINTS: Fermi energy:  1.352789; 12.000000 electrons
         Band energy:-193.828805;  BLOECHL correction:  0.000000
       DOS:  cpu time    0.0043: real time    0.0049
    CHARGE:  cpu time    0.0522: real time    0.1546
    MIXING:  cpu time    0.0059: real time    0.0279
    --------------------------------------------
      LOOP:  cpu time    3.4843: real time   10.4881

 eigenvalue-minimisations  :  6912
 total energy-change (2. order) : 0.1712826E+01  (-0.1032647E+00)
 number of electron      11.9999994 magnetization      -0.0000000
 augmentation part        2.4597757 magnetization      -0.0000017

 Broyden mixing:
  rms(total) = 0.30057E+00    rms(broyden)= 0.30030E+00
  rms(prec ) = 0.71114E+00
  weight for this iteration     100.00

 eigenvalues of (default mixing * dielectric matrix)
  average eigenvalue GAMMA=   0.7578
  0.7578

 Free energy of the ion-electron system (eV)
  ---------------------------------------------------
  alpha Z        PSCENC =        18.27813350
  Ewald energy   TEWEN  =      -502.16616577
  -Hartree energ DENC   =      -195.57788132
  -exchange      EXHF   =         0.00000000
  -V(xc)+E(xc)   XCENC  =        54.14404049
  PAW double counting   =       577.69069917     -610.85067658
  entropy T*S    EENTRO =         0.00000000
  eigenvalues    EBANDS =      -193.82880513
  atomic energy  EATOM  =       837.90368042
  Solvation  Ediel_sol  =         0.00000000
  ---------------------------------------------------
  free energy    TOTEN  =       -14.40697522 eV

  energy without entropy =      -14.40697522  energy(sigma->0) =      -14.40697522


--------------------------------------------------------------------------------------------------------




--------------------------------------- Iteration      1(   7)  ---------------------------------------


    POTLOK:  cpu time    0.0164: real time    0.0432
    SETDIJ:  cpu time    0.2505: real time    0.7613
    EDDIAG:  cpu time    2.1769: real time    6.5569
  RMM-DIIS:  cpu time    0.5088: real time    1.5320
    ORTHCH:  cpu time    0.1102: real time    0.3306
 BZINTS: Fermi energy:  1.101357; 12.000000 electrons
         Band energy:-195.701780;  BLOECHL correction:  0.000000
       DOS:  cpu time    0.0035: real time    0.0041
    CHARGE:  cpu time    0.0488: real time    0.1384
    MIXING:  cpu time    0.0014: real time    0.0053
    --------------------------------------------
      LOOP:  cpu time    3.1164: real time    9.3719

 eigenvalue-minimisations  :  6920
 total energy-change (2. order) : 0.5801381E-01  (-0.5494074E-02)
 number of electron      11.9999994 magnetization      -0.0000000
 augmentation part        2.4916066 magnetization       0.0000017

 Broyden mixing:
  rms(total) = 0.14312E+00    rms(broyden)= 0.14311E+00
  rms(prec ) = 0.39521E+00
  weight for this iteration     100.00

 eigenvalues of (default mixing * dielectric matrix)
  average eigenvalue GAMMA=   1.7388
  0.8808  2.5968

 Free energy of the ion-electron system (eV)
  ---------------------------------------------------
  alpha Z        PSCENC =        18.27813350
  Ewald energy   TEWEN  =      -502.16616577
  -Hartree energ DENC   =      -193.59425944
  -exchange      EXHF   =         0.00000000
  -V(xc)+E(xc)   XCENC  =        53.98941100
  PAW double counting   =       597.73522997     -630.79321091
  entropy T*S    EENTRO =         0.00000000
  eigenvalues    EBANDS =      -195.70178018
  atomic energy  EATOM  =       837.90368042
  Solvation  Ediel_sol  =         0.00000000
  ---------------------------------------------------
  free energy    TOTEN  =       -14.34896142 eV

  energy without entropy =      -14.34896142  energy(sigma->0) =      -14.34896142


--------------------------------------------------------------------------------------------------------




--------------------------------------- Iteration      1(   8)  ---------------------------------------


    POTLOK:  cpu time    0.0121: real time    0.0377
    SETDIJ:  cpu time    0.2534: real time    0.7773
    EDDIAG:  cpu time    2.4719: real time    7.4456
  RMM-DIIS:  cpu time    0.5070: real time    1.5201
    ORTHCH:  cpu time    0.0782: real time    0.2416
 BZINTS: Fermi energy:  1.344403; 12.000000 electrons
         Band energy:-194.903412;  BLOECHL correction:  0.000000
       DOS:  cpu time    0.0039: real time    0.0041
    CHARGE:  cpu time    0.0497: real time    0.1453
    MIXING:  cpu time    0.0016: real time    0.0062
    --------------------------------------------
      LOOP:  cpu time    3.3779: real time   10.1779

 eigenvalue-minimisations  :  6927
 total energy-change (2. order) : 0.2181947E-02  (-0.6368212E-02)
 number of electron      11.9999994 magnetization       0.0000000
 augmentation part        2.4833599 magnetization       0.0000004

 Broyden mixing:
  rms(total) = 0.24111E-01    rms(broyden)= 0.24086E-01
  rms(prec ) = 0.48504E-01
  weight for this iteration     100.00

 eigenvalues of (default mixing * dielectric matrix)
  average eigenvalue GAMMA=   1.9679
  0.8846  2.5095  2.5095

 Free energy of the ion-electron system (eV)
  ---------------------------------------------------
  alpha Z        PSCENC =        18.27813350
  Ewald energy   TEWEN  =      -502.16616577
  -Hartree energ DENC   =      -194.45665521
  -exchange      EXHF   =         0.00000000
  -V(xc)+E(xc)   XCENC  =        54.02100368
  PAW double counting   =       644.84798028     -677.87134420
  entropy T*S    EENTRO =         0.00000000
  eigenvalues    EBANDS =      -194.90341216
  atomic energy  EATOM  =       837.90368042
  Solvation  Ediel_sol  =         0.00000000
  ---------------------------------------------------
  free energy    TOTEN  =       -14.34677947 eV

  energy without entropy =      -14.34677947  energy(sigma->0) =      -14.34677947


--------------------------------------------------------------------------------------------------------




--------------------------------------- Iteration      1(   9)  ---------------------------------------


    POTLOK:  cpu time    0.0130: real time    0.0389
    SETDIJ:  cpu time    0.2462: real time    0.7543
    EDDIAG:  cpu time    1.1788: real time    3.5447
  RMM-DIIS:  cpu time    0.4906: real time    1.4759
    ORTHCH:  cpu time    0.0715: real time    0.2128
 BZINTS: Fermi energy:  1.361413; 12.000000 electrons
         Band energy:-194.461548;  BLOECHL correction:  0.000000
       DOS:  cpu time    0.0040: real time    0.0042
    CHARGE:  cpu time    0.0506: real time    0.1496
    MIXING:  cpu time    0.0016: real time    0.0068
    --------------------------------------------
      LOOP:  cpu time    2.0562: real time    6.1872

 eigenvalue-minimisations  :  6639
 total energy-change (2. order) : 0.1604728E-02  (-0.1720148E-03)
 number of electron      11.9999994 magnetization      -0.0000000
 augmentation part        2.4773539 magnetization      -0.0000022

 Broyden mixing:
  rms(total) = 0.15901E-01    rms(broyden)= 0.15893E-01
  rms(prec ) = 0.41865E-01
  weight for this iteration     100.00

 eigenvalues of (default mixing * dielectric matrix)
  average eigenvalue GAMMA=   1.8196
  0.9407  0.9407  2.9040  2.4931

 Free energy of the ion-electron system (eV)
  ---------------------------------------------------
  alpha Z        PSCENC =        18.27813350
  Ewald energy   TEWEN  =      -502.16616577
  -Hartree energ DENC   =      -194.90771620
  -exchange      EXHF   =         0.00000000
  -V(xc)+E(xc)   XCENC  =        54.05554077
  PAW double counting   =       634.99301338     -668.04011288
  entropy T*S    EENTRO =         0.00000000
  eigenvalues    EBANDS =      -194.46154796
  atomic energy  EATOM  =       837.90368042
  Solvation  Ediel_sol  =         0.00000000
  ---------------------------------------------------
  free energy    TOTEN  =       -14.34517474 eV

  energy without entropy =      -14.34517474  energy(sigma->0) =      -14.34517474


--------------------------------------------------------------------------------------------------------




--------------------------------------- Iteration      1(  10)  ---------------------------------------


    POTLOK:  cpu time    0.0175: real time    0.0545
    SETDIJ:  cpu time    0.2457: real time    0.7507
    EDDIAG:  cpu time    1.1330: real time    3.4108
  RMM-DIIS:  cpu time    0.4923: real time    1.4842
    ORTHCH:  cpu time    0.1518: real time    0.4540
 BZINTS: Fermi energy:  1.368788; 12.000000 electrons
         Band energy:-194.559945;  BLOECHL correction:  0.000000
       DOS:  cpu time    0.0039: real time    0.0041
    --------------------------------------------
      LOOP:  cpu time    2.0442: real time    6.1581

 eigenvalue-minimisations  :  6637
 total energy-change (2. order) :-0.1607006E-04  (-0.5811081E-04)
 number of electron      11.9999994 magnetization      -0.0000000
 augmentation part        2.4773539 magnetization      -0.0000022

 Free energy of the ion-electron system (eV)
  ---------------------------------------------------
  alpha Z        PSCENC =        18.27813350
  Ewald energy   TEWEN  =      -502.16616577
  -Hartree energ DENC   =      -194.81688090
  -exchange      EXHF   =         0.00000000
  -V(xc)+E(xc)   XCENC  =        54.04964133
  PAW double counting   =       634.92683362     -667.96048772
  entropy T*S    EENTRO =         0.00000000
  eigenvalues    EBANDS =      -194.55994528
  atomic energy  EATOM  =       837.90368042
  Solvation  Ediel_sol  =         0.00000000
  ---------------------------------------------------
  free energy    TOTEN  =       -14.34519081 eV

  energy without entropy =      -14.34519081  energy(sigma->0) =      -14.34519081


--------------------------------------------------------------------------------------------------------




 average (electrostatic) potential at core
  the test charge radii are     0.7079  0.7215
  (the norm of the test charge is              1.0000)
       1 -60.7552       2 -60.7552       3 -71.1601
 
 
 
 E-fermi :   1.3688     XC(G=0):  -9.6475     alpha+bet :-14.7962


 spin component 1

 k-point     1 :       0.0000    0.0000    0.0000
  band No.  band energies     occupation 
      1     -41.8327      1.00000
      2     -41.5286      1.00000
      3     -14.2022      1.00000
      4       1.2050      1.00000
      5       1.2050      1.00000
      6       1.2050      1.00000
      7       6.2979      0.00000
      8      12.9941      0.00000
      9      12.9941      0.00000
     10      12.9942      0.00000
     11      19.9340      0.00000
     12      19.9340      0.00000
     13      19.9341      0.00000
     14      22.2676      0.00000
     15      22.2676      0.00000
     16      28.3320      0.00000
     17      28.5027      0.00000
     18      28.5027      0.00000
     19      28.5027      0.00000
     20      32.1813      0.00000
     21      46.8996      0.00000
     22      46.8996      0.00000
     23      46.8997      0.00000
     24      49.0700      0.00000

 k-point     2 :       0.0833    0.0000    0.0000
  band No.  band energies     occupation 
      1     -41.8268      1.00000
      2     -41.5327      1.00000
      3     -14.1886      1.00000
      4       0.9676      1.00000
      5       1.1728      1.00000
      6       1.1728      1.00000
      7       6.4928      0.00000
      8      13.0025      0.00000
      9      13.0954      0.00000
     10      13.0954      0.00000
     11      19.1492      0.00000
     12      19.1493      0.00000
     13      20.1565      0.00000
     14      23.3831      0.00000
     15      23.3831      0.00000
     16      27.4937      0.00000
     17      28.5291      0.00000
     18      28.5291      0.00000
     19      29.4426      0.00000
     20      32.1029      0.00000
     21      45.0096      0.00000
     22      45.0101      0.00000
     23      46.8697      0.00000
     24      48.2704      0.00000

 k-point     3 :       0.1667    0.0000    0.0000
  band No.  band energies     occupation 
      1     -41.8093      1.00000
      2     -41.5459      1.00000
      3     -14.1509      1.00000
      4       0.3831      1.00000
      5       1.0876      1.00000
      6       1.0876      1.00000
      7       7.0034      0.00000
      8      12.9624      0.00000
      9      13.3199      0.00000
     10      13.3200      0.00000
     11      18.1837      0.00000
     12      18.1837      0.00000
     13      20.7740      0.00000
     14      25.2734      0.00000
     15      25.2734      0.00000
     16      26.6989      0.00000
     17      28.6918      0.00000
     18      28.6918      0.00000
     19      30.5451      0.00000
     20      31.9031      0.00000
     21      41.9251      0.00000
     22      41.9252      0.00000
     23      46.1320      0.00000
     24      48.4999      0.00000

 k-point     4 :       0.2500    0.0000    0.0000
  band No.  band energies     occupation 
      1     -41.7821      1.00000
      2     -41.5673      1.00000
      3     -14.0971      1.00000
      4      -0.3136      1.00000
      5       0.9770      1.00000
      6       0.9770      1.00000
      7       7.7140      0.00000
      8      12.7383      0.00000
      9      13.4566      0.00000
     10      13.4567      0.00000
     11      17.7708      0.00000
     12      17.7708      0.00000
     13      21.6444      0.00000
     14      26.1139      0.00000
     15      26.6487      0.00000
     16      26.6487      0.00000
     17      29.5771      0.00000
     18      29.5771      0.00000
     19      30.7761      0.00000
     20      32.7984      0.00000
     21      39.3229      0.00000
     22      39.3229      0.00000
     23      44.4957      0.00000
     24      48.9511      0.00000

 k-point     5 :       0.3333    0.0000    0.0000
  band No.  band energies     occupation 
      1     -41.7478      1.00000
      2     -41.5960      1.00000
      3     -14.0409      1.00000
      4      -0.9336      1.00000
      5       0.8724      1.00000
      6       0.8725      1.00000
      7       8.5599      0.00000
      8      12.2375      0.00000
      9      13.3708      0.00000
     10      13.3709      0.00000
     11      17.9932      0.00000
     12      17.9933      0.00000
     13      22.5640      0.00000
     14      25.8009      0.00000
     15      26.7792      0.00000
     16      26.7792      0.00000
     17      30.2686      0.00000
     18      31.5920      0.00000
     19      31.5921      0.00000
     20      34.7513      0.00000
     21      37.6542      0.00000
     22      37.6542      0.00000
     23      42.8956      0.00000
     24      47.5289      0.00000

 k-point     6 :       0.4167    0.0000    0.0000
  band No.  band energies     occupation 
      1     -41.7090      1.00000
      2     -41.6305      1.00000
      3     -13.9977      1.00000
      4      -1.3527      1.00000
      5       0.7994      1.00000
      6       0.7994      1.00000
      7       9.4914      0.00000
      8      11.4849      0.00000
      9      13.2004      0.00000
     10      13.2005      0.00000
     11      18.4927      0.00000
     12      18.4927      0.00000
     13      23.3018      0.00000
     14      25.7086      0.00000
     15      26.4242      0.00000
     16      26.4242      0.00000
     17      29.7778      0.00000
     18      33.2920      0.00000
     19      33.2920      0.00000
     20      36.7833      0.00000
     21      37.7367      0.00000
     22      37.7368      0.00000
     23      42.2563      0.00000
     24      43.8445      0.00000

 k-point     7 :       0.5000    0.0000    0.0000
  band No.  band energies     occupation 
      1     -41.6696      1.00000
      2     -41.6686      1.00000
      3     -13.9819      1.00000
      4      -1.5003      1.00000
      5       0.7733      1.00000
      6       0.7733      1.00000
      7      10.2477      0.00000
      8      10.7788      0.00000
      9      13.1235      0.00000
     10      13.1236      0.00000
     11      18.7475      0.00000
     12      18.7475      0.00000
     13      23.5894      0.00000
     14      25.7003      0.00000
     15      26.2136      0.00000
     16      26.2136      0.00000
     17      29.5677      0.00000
     18      33.6802      0.00000
     19      33.6802      0.00000
     20      37.6587      0.00000
     21      39.4825      0.00000
     22      39.4826      0.00000
     23      41.0534      0.00000
     24      41.0535      0.00000

 k-point     8 :       0.0833    0.0833    0.0000
  band No.  band energies     occupation 
      1     -41.8249      1.00000
      2     -41.5340      1.00000
      3     -14.1842      1.00000
      4       1.0113      1.00000
      5       1.1028      1.00000
      6       1.1028      1.00000
      7       6.5423      0.00000
      8      13.0527      0.00000
      9      13.0528      0.00000
     10      13.1861      0.00000
     11      18.0276      0.00000
     12      20.3914      0.00000
     13      20.3914      0.00000
     14      22.4591      0.00000
     15      24.0164      0.00000
     16      27.8490      0.00000
     17      28.3808      0.00000
     18      28.3808      0.00000
     19      29.6534      0.00000
     20      32.0490      0.00000
     21      45.1971      0.00000
     22      45.1971      0.00000
     23      45.3495      0.00000
     24      47.0977      0.00000

 k-point     9 :       0.1667    0.0833    0.0000
  band No.  band energies     occupation 
      1     -41.8116      1.00000
      2     -41.5440      1.00000
      3     -14.1549      1.00000
      4       0.5687      1.00000
      5       0.9859      1.00000
      6       1.0693      1.00000
      7       6.9041      0.00000
      8      13.0577      0.00000
      9      13.1758      0.00000
     10      13.4840      0.00000
     11      16.9779      0.00000
     12      19.9723      0.00000
     13      20.9506      0.00000
     14      23.8587      0.00000
     15      24.7629      0.00000
     16      27.6624      0.00000
     17      28.2667      0.00000
     18      29.0254      0.00000
     19      30.5011      0.00000
     20      31.8079      0.00000
     21      41.9514      0.00000
     22      43.1661      0.00000
     23      45.6058      0.00000
     24      46.9170      0.00000

 k-point    10 :       0.2500    0.0833    0.0000
  band No.  band energies     occupation 
      1     -41.7882      1.00000
      2     -41.5620      1.00000
      3     -14.1068      1.00000
      4      -0.0821      1.00000
      5       0.8581      1.00000
      6       0.9988      1.00000
      7       7.4865      0.00000
      8      12.8677      0.00000
      9      13.3135      0.00000
     10      13.8166      0.00000
     11      16.4595      0.00000
     12      19.3791      0.00000
     13      21.6689      0.00000
     14      25.1560      0.00000
     15      25.9890      0.00000
     16      27.3932      0.00000
     17      28.2613      0.00000
     18      30.4693      0.00000
     19      31.0636      0.00000
     20      32.2968      0.00000
     21      39.2077      0.00000
     22      40.5588      0.00000
     23      45.5273      0.00000
     24      46.1341      0.00000

 k-point    11 :       0.3333    0.0833    0.0000
  band No.  band energies     occupation 
      1     -41.7569      1.00000
      2     -41.5876      1.00000
      3     -14.0513      1.00000
      4      -0.7188      1.00000
      5       0.7545      1.00000
      6       0.8912      1.00000
      7       8.2219      0.00000
      8      12.4057      0.00000
      9      13.3383      0.00000
     10      13.8554      0.00000
     11      16.7339      0.00000
     12      19.1936      0.00000
     13      22.4519      0.00000
     14      25.2737      0.00000
     15      26.9034      0.00000
     16      27.1847      0.00000
     17      29.5575      0.00000
     18      30.5539      0.00000
     19      32.4362      0.00000
     20      34.2394      0.00000
     21      37.3508      0.00000
     22      38.4226      0.00000
     23      43.7882      0.00000
     24      46.7592      0.00000

 k-point    12 :       0.4167    0.0833    0.0000
  band No.  band energies     occupation 
      1     -41.7204      1.00000
      2     -41.6193      1.00000
      3     -14.0036      1.00000
      4      -1.1993      1.00000
      5       0.6996      1.00000
      6       0.7781      1.00000
      7       9.0526      0.00000
      8      11.7354      0.00000
      9      13.2719      0.00000
     10      13.6487      0.00000
     11      17.5494      0.00000
     12      19.2017      0.00000
     13      23.1707      0.00000
     14      25.3958      0.00000
     15      26.5814      0.00000
     16      26.8278      0.00000
     17      30.0760      0.00000
     18      31.8950      0.00000
     19      33.9506      0.00000
     20      36.0676      0.00000
     21      36.7908      0.00000
     22      38.2535      0.00000
     23      42.5946      0.00000
     24      44.0140      0.00000

 k-point    13 :       0.5000    0.0833    0.0000
  band No.  band energies     occupation 
      1     -41.6818      1.00000
      2     -41.6556      1.00000
      3     -13.9783      1.00000
      4      -1.4360      1.00000
      5       0.6888      1.00000
      6       0.7043      1.00000
      7       9.8323      0.00000
      8      11.0187      0.00000
      9      13.2421      0.00000
     10      13.4672      0.00000
     11      18.4172      0.00000
     12      18.9493      0.00000
     13      23.6033      0.00000
     14      25.6288      0.00000
     15      26.3420      0.00000
     16      26.3497      0.00000
     17      29.7808      0.00000
     18      33.4798      0.00000
     19      33.6626      0.00000
     20      37.5093      0.00000
     21      38.1843      0.00000
     22      39.8473      0.00000
     23      41.2785      0.00000
     24      42.6345      0.00000

 k-point    14 :      -0.4167    0.0833    0.0000
  band No.  band energies     occupation 
      1     -41.6942      1.00000
      2     -41.6437      1.00000
      3     -13.9835      1.00000
      4      -1.3894      1.00000
      5       0.6450      1.00000
      6       0.7663      1.00000
      7       9.6904      0.00000
      8      11.1264      0.00000
      9      13.3538      0.00000
     10      13.4257      0.00000
     11      18.2133      0.00000
     12      18.9740      0.00000
     13      23.5208      0.00000
     14      25.6847      0.00000
     15      26.2598      0.00000
     16      26.5099      0.00000
     17      29.8122      0.00000
     18      32.9004      0.00000
     19      34.2086      0.00000
     20      36.7173      0.00000
     21      38.2031      0.00000
     22      39.1921      0.00000
     23      41.6034      0.00000
     24      42.5557      0.00000

 k-point    15 :      -0.3333    0.0833    0.0000
  band No.  band energies     occupation 
      1     -41.7325      1.00000
      2     -41.6087      1.00000
      3     -14.0177      1.00000
      4      -1.0685      1.00000
[...]
     22      39.7425      0.00000
     23      41.6982      0.00000
     24      42.4059      0.00000

 k-point    61 :       0.5000    0.4167    0.0833
  band No.  band energies     occupation 
      1     -41.5583      1.00000
      2     -41.4517      1.00000
      3     -13.8632      1.00000
      4      -0.3636      1.00000
      5       0.0094      1.00000
      6       0.0697      1.00000
      7       6.9137      0.00000
      8      13.9283      0.00000
      9      14.7424      0.00000
     10      15.7255      0.00000
     11      16.9392      0.00000
     12      22.0475      0.00000
     13      23.3690      0.00000
     14      24.9890      0.00000
     15      28.2137      0.00000
     16      28.7658      0.00000
     17      30.8737      0.00000
     18      32.3996      0.00000
     19      33.1529      0.00000
     20      34.9743      0.00000
     21      38.4984      0.00000
     22      38.5137      0.00000
     23      41.8256      0.00000
     24      42.6112      0.00000

 k-point    62 :      -0.4167    0.4167    0.0833
  band No.  band energies     occupation 
      1     -41.5418      1.00000
      2     -41.4668      1.00000
      3     -13.8472      1.00000
      4      -0.4637      1.00000
      5      -0.1273      1.00000
      6       0.0327      1.00000
      7       7.3115      0.00000
      8      13.3148      0.00000
      9      14.8549      0.00000
     10      15.7411      0.00000
     11      17.5773      0.00000
     12      22.0433      0.00000
     13      22.6921      0.00000
     14      25.1472      0.00000
     15      28.0552      0.00000
     16      28.1296      0.00000
     17      31.6806      0.00000
     18      33.4379      0.00000
     19      34.5030      0.00000
     20      36.2831      0.00000
     21      37.9929      0.00000
     22      38.9444      0.00000
     23      40.6426      0.00000
     24      41.4379      0.00000

 k-point    63 :      -0.3333    0.4167    0.0833
  band No.  band energies     occupation 
      1     -41.5237      1.00000
      2     -41.4850      1.00000
      3     -13.8429      1.00000
      4      -0.6493      1.00000
      5      -0.1820      1.00000
      6       0.1636      1.00000
      7       7.9923      0.00000
      8      12.5427      0.00000
      9      14.8191      0.00000
     10      15.5785      0.00000
     11      18.2296      0.00000
     12      20.5888      0.00000
     13      23.5619      0.00000
     14      25.5535      0.00000
     15      27.4125      0.00000
     16      27.5655      0.00000
     17      31.0545      0.00000
     18      35.4069      0.00000
     19      36.3806      0.00000
     20      36.8344      0.00000
     21      38.3930      0.00000
     22      38.6858      0.00000
     23      40.0619      0.00000
     24      41.5113      0.00000

 k-point    64 :      -0.4167    0.5000    0.0833
  band No.  band energies     occupation 
      1     -41.5499      1.00000
      2     -41.4581      1.00000
      3     -13.8465      1.00000
      4      -0.2541      1.00000
      5      -0.1734      1.00000
      6      -0.0673      1.00000
      7       6.7097      0.00000
      8      14.0928      0.00000
      9      14.8913      0.00000
     10      15.9105      0.00000
     11      17.2984      0.00000
     12      21.8439      0.00000
     13      23.3560      0.00000
     14      24.8467      0.00000
     15      28.6148      0.00000
     16      28.8561      0.00000
     17      31.4714      0.00000
     18      32.7131      0.00000
     19      34.4655      0.00000
     20      35.7598      0.00000
     21      36.5010      0.00000
     22      37.4250      0.00000
     23      41.2749      0.00000
     24      41.7297      0.00000

 k-point    65 :       0.5000    0.3333    0.1667
  band No.  band energies     occupation 
      1     -41.5612      1.00000
      2     -41.4537      1.00000
      3     -13.8904      1.00000
      4      -0.6877      1.00000
      5       0.1380      1.00000
      6       0.5633      1.00000
      7       8.3092      0.00000
      8      12.3331      0.00000
      9      14.6164      0.00000
     10      15.1885      0.00000
     11      16.7344      0.00000
     12      21.1584      0.00000
     13      23.4802      0.00000
     14      25.4636      0.00000
     15      27.5522      0.00000
     16      27.6606      0.00000
     17      29.9613      0.00000
     18      32.5706      0.00000
     19      34.8932      0.00000
     20      35.7247      0.00000
     21      39.0254      0.00000
     22      39.3940      0.00000
     23      42.7039      0.00000
     24      43.6117      0.00000

 k-point    66 :      -0.4167    0.3333    0.1667
  band No.  band energies     occupation 
      1     -41.5336      1.00000
      2     -41.4781      1.00000
      3     -13.8624      1.00000
      4      -0.8398      1.00000
      5       0.0573      1.00000
      6       0.3828      1.00000
      7       8.6526      0.00000
      8      11.8629      0.00000
      9      14.8495      0.00000
     10      15.1097      0.00000
     11      17.8705      0.00000
     12      20.2461      0.00000
     13      24.0075      0.00000
     14      25.7705      0.00000
     15      27.0731      0.00000
     16      27.2248      0.00000
     17      30.9518      0.00000
     18      33.7389      0.00000
     19      35.3921      0.00000
     20      37.7868      0.00000
     21      37.9126      0.00000
     22      40.0716      0.00000
     23      41.8086      0.00000
     24      42.3626      0.00000

 k-point    67 :      -0.3333    0.3333    0.1667
  band No.  band energies     occupation 
      1     -41.5055      1.00000
      2     -41.5052      1.00000
      3     -13.8521      1.00000
      4      -0.9044      1.00000
      5       0.0746      1.00000
      6       0.2774      1.00000
      7       8.8323      0.00000
      8      11.6447      0.00000
      9      14.8951      0.00000
     10      15.0924      0.00000
     11      18.9402      0.00000
     12      19.2797      0.00000
     13      24.3184      0.00000
     14      25.8603      0.00000
     15      26.8886      0.00000
     16      26.8938      0.00000
     17      31.3073      0.00000
     18      34.0675      0.00000
     19      37.0924      0.00000
     20      37.4081      0.00000
     21      38.2530      0.00000
     22      40.2140      0.00000
     23      40.2328      0.00000
     24      42.2558      0.00000

 k-point    68 :      -0.4167    0.4167    0.1667
  band No.  band energies     occupation 
      1     -41.5388      1.00000
      2     -41.4711      1.00000
      3     -13.8536      1.00000
      4      -0.6031      1.00000
      5      -0.0409      1.00000
      6       0.1244      1.00000
      7       7.9144      0.00000
      8      12.5283      0.00000
      9      14.9594      0.00000
     10      15.5131      0.00000
     11      17.6958      0.00000
     12      21.1982      0.00000
     13      23.3859      0.00000
     14      25.4078      0.00000
     15      27.3403      0.00000
     16      27.6734      0.00000
     17      31.5204      0.00000
     18      33.8858      0.00000
     19      34.8029      0.00000
     20      36.2906      0.00000
     21      38.9862      0.00000
     22      39.2266      0.00000
     23      41.3797      0.00000
     24      41.8033      0.00000

 k-point    69 :      -0.3333    0.4167    0.1667
  band No.  band energies     occupation 
      1     -41.5181      1.00000
      2     -41.4907      1.00000
      3     -13.8421      1.00000
      4      -0.6331      1.00000
      5      -0.1030      1.00000
      6       0.0197      1.00000
      7       8.3420      0.00000
      8      11.9614      0.00000
      9      15.1254      0.00000
     10      15.4548      0.00000
     11      18.6091      0.00000
     12      20.1466      0.00000
     13      24.0148      0.00000
     14      25.6094      0.00000
     15      26.6406      0.00000
     16      27.1768      0.00000
     17      32.0900      0.00000
     18      35.0598      0.00000
     19      36.2348      0.00000
     20      36.8992      0.00000
     21      38.3793      0.00000
     22      40.2201      0.00000
     23      40.3332      0.00000
     24      40.9142      0.00000

 k-point    70 :      -0.2500    0.4167    0.1667
  band No.  band energies     occupation 
      1     -41.5120      1.00000
      2     -41.4975      1.00000
      3     -13.8454      1.00000
      4      -0.7270      1.00000
      5      -0.1109      1.00000
      6       0.1640      1.00000
      7       8.6493      0.00000
      8      11.6787      0.00000
      9      15.1577      0.00000
     10      15.2622      0.00000
     11      18.9408      0.00000
     12      19.4791      0.00000
     13      24.3350      0.00000
     14      25.8472      0.00000
     15      26.4944      0.00000
     16      26.9686      0.00000
     17      31.6133      0.00000
     18      35.4065      0.00000
     19      35.9160      0.00000
     20      38.0088      0.00000
     21      38.0232      0.00000
     22      40.4357      0.00000
     23      40.8110      0.00000
     24      41.3264      0.00000

 k-point    71 :      -0.3333    0.5000    0.1667
  band No.  band energies     occupation 
      1     -41.5305      1.00000
      2     -41.4776      1.00000
      3     -13.8404      1.00000
      4      -0.3905      1.00000
      5      -0.2130      1.00000
      6      -0.1050      1.00000
      7       7.7370      0.00000
      8      12.6215      0.00000
      9      15.0957      0.00000
     10      15.6826      0.00000
     11      18.1012      0.00000
     12      21.2491      0.00000
     13      23.2443      0.00000
     14      25.2638      0.00000
     15      27.2677      0.00000
     16      27.6208      0.00000
     17      32.6531      0.00000
     18      34.6557      0.00000
     19      35.0303      0.00000
     20      35.9689      0.00000
     21      38.5993      0.00000
     22      40.2427      0.00000
     23      40.3380      0.00000
     24      41.0950      0.00000

 k-point    72 :      -0.2500    0.5000    0.2500
  band No.  band energies     occupation 
      1     -41.5041      1.00000
      2     -41.5041      1.00000
      3     -13.8372      1.00000
      4      -0.4900      1.00000
      5      -0.1582      1.00000
      6      -0.1582      1.00000
      7       8.4714      0.00000
      8      11.7101      0.00000
      9      15.3834      0.00000
     10      15.3835      0.00000
     11      19.4342      0.00000
     12      19.4342      0.00000
     13      24.3532      0.00000
     14      25.6178      0.00000
     15      26.0387      0.00000
     16      27.0284      0.00000
     17      32.8819      0.00000
     18      35.6915      0.00000
     19      35.6915      0.00000
     20      37.8284      0.00000
     21      37.8284      0.00000
     22      39.6663      0.00000
     23      40.4643      0.00000
     24      42.1093      0.00000


--------------------------------------------------------------------------------------------------------


 soft charge-density along one line, spin component           1
         0         1         2         3         4         5         6         7         8         9
 total charge-density along one line
 
 soft charge-density along one line, spin component           2
         0         1         2         3         4         5         6         7         8         9
 total charge-density along one line
 
 pseudopotential strength for first ion, spin component:           1
-38.428   3.575  -0.000  -0.000  -0.000
  3.575  -9.993  -0.000  -0.000  -0.000
 -0.000  -0.000   0.132   0.000   0.000
 -0.000  -0.000   0.000   0.132   0.000
 -0.000  -0.000   0.000   0.000   0.132
 pseudopotential strength for first ion, spin component:           2
-38.428   3.575  -0.000  -0.000  -0.000
  3.575  -9.993  -0.000  -0.000  -0.000
 -0.000  -0.000   0.132   0.000   0.000
 -0.000  -0.000   0.000   0.132   0.000
 -0.000  -0.000   0.000   0.000   0.132
 total augmentation occupancy for first ion, spin component:           1
  2.001   0.008   0.000  -0.000  -0.000
  0.008   0.968   0.000   0.000  -0.000
  0.000  -0.000   0.038   0.000   0.000
 -0.000  -0.000   0.000   0.038   0.000
 -0.000  -0.000   0.000  -0.000   0.038
 total augmentation occupancy for first ion, spin component:           2
  0.000   0.000  -0.000  -0.000   0.000
  0.000  -0.000  -0.000   0.000   0.000
 -0.000  -0.000  -0.000  -0.000   0.000
 -0.000   0.000  -0.000  -0.000   0.000
  0.000   0.000   0.000   0.000  -0.000


------------------------ aborting loop because EDIFF is reached ----------------------------------------


 


 total charge     
 
# of ion       s       p       d       tot
------------------------------------------
    1        2.035   0.082   0.000   2.117
    2        2.035   0.082   0.000   2.117
    3        1.534   3.497   0.000   5.031
--------------------------------------------------
tot          5.604   3.661   0.000   9.265
 


 magnetization (x)
 
# of ion       s       p       d       tot
------------------------------------------
    1       -0.000   0.000   0.000   0.000
    2       -0.000   0.000   0.000   0.000
    3        0.000   0.000   0.000   0.000
--------------------------------------------------
tot         -0.000   0.000   0.000   0.000
 
    CHARGE:  cpu time    0.0489: real time    0.1386
    FORLOC:  cpu time    0.0004: real time    0.0022
    FORNL :  cpu time    0.3426: real time    1.0203
    STRESS:  cpu time    1.0288: real time    3.0557
    FORCOR:  cpu time    0.0119: real time    0.0355
    FORHAR:  cpu time    0.0000: real time    0.0057
    MIXING:  cpu time    0.0000: real time    0.0037
    OFIELD:  cpu time    0.0000: real time    0.0000

  FORCE on cell =-STRESS in cart. coord.  units (eV):
  Direction    XX          YY          ZZ          XY          YZ          ZX
  --------------------------------------------------------------------------------------
  Alpha Z    18.67239    18.67239    18.67239
  Ewald    -168.58381  -168.58381  -168.58381    -0.00000    -0.00000    -0.00000
  Hartree    64.35921    64.35921    64.35921     0.00000     0.00000     0.00000
  E(xc)     -58.13335   -58.13335   -58.13335    -0.00000    -0.00000    -0.00000
  Local     -55.04587   -55.04587   -55.04587    -0.00006    -0.00006    -0.00006
  n-local   -63.58309   -63.85531   -61.96739    -1.28802     1.18192    -0.74080
  augment    40.66296    40.66296    40.66296     0.00008     0.00008     0.00008
  Kinetic   223.23032   223.11863   217.20291     4.68231    -3.92436     2.58927
  Fock        0.00000     0.00000     0.00000     0.00000     0.00000     0.00000
  -------------------------------------------------------------------------------------
  Total      -0.01977    -0.01977    -0.01977    -0.00000    -0.00000    -0.00000
  in kB      -1.28024    -1.28024    -1.28024    -0.00000    -0.00000    -0.00000
  external pressure =       -1.28 kB  Pullay stress =        0.00 kB


 VOLUME and BASIS-vectors are now :
 -----------------------------------------------------------------------------
  energy-cutoff  :      520.00
  volume of cell :       24.75
      direct lattice vectors                 reciprocal lattice vectors
    -0.000000000  2.312909286  2.312909286    -0.216177955  0.216177955  0.216177955
     2.312909286  0.000000000  2.312909286     0.216177955 -0.216177955  0.216177955
     2.312909286  2.312909286  0.000000000     0.216177955  0.216177955 -0.216177955

  length of vectors
     3.270947680  3.270947680  3.270947680     0.374431202  0.374431202  0.374431202


 FORCES acting on ions
    electron-ion (+dipol)            ewald-force                    non-local-force                 convergence-correction
 -----------------------------------------------------------------------------------------------
   0.196E-07 0.196E-07 0.661E-07   -.767E-15 0.297E-14 -.221E-14   -.260E-17 0.000E+00 -.120E-17   -.561E-08 -.561E-08 -.561E-08
   -.196E-07 -.196E-07 -.661E-07   0.812E-15 -.220E-14 0.398E-14   0.000E+00 0.173E-17 0.141E-17   0.561E-08 0.561E-08 0.561E-08
   -.849E-14 -.151E-13 -.397E-14   0.952E-16 -.455E-15 -.113E-14   0.827E-24 -.827E-24 0.831E-24   -.106E-13 0.192E-14 -.232E-13
 -----------------------------------------------------------------------------------------------
   0.258E-12 0.129E-12 0.611E-12   0.140E-15 0.313E-15 0.636E-15   -.260E-17 0.173E-17 0.217E-18   -.903E-14 0.112E-13 -.194E-13
 
 
 POSITION                                       TOTAL-FORCE (eV/Angst)
 -----------------------------------------------------------------------------------
      3.46936      3.46936      3.46936         0.000000      0.000000      0.000000
      1.15645      1.15645      1.15645        -0.000000     -0.000000     -0.000000
      0.00000     -0.00000      0.00000         0.000000      0.000000      0.000000
 -----------------------------------------------------------------------------------
    total drift:                                0.000000      0.000000      0.000000


--------------------------------------------------------------------------------------------------------



  FREE ENERGIE OF THE ION-ELECTRON SYSTEM (eV)
  ---------------------------------------------------
  free  energy   TOTEN  =       -14.34802163 eV

  energy  without entropy=      -14.34802163  energy(sigma->0) =      -14.34802163
 
 d Force = 0.0000000E+00[ 0.000E+00, 0.000E+00]  d Energy = 0.5498885E-03-0.550E-03
 d Force = 0.0000000E+00[ 0.000E+00, 0.000E+00]  d Ewald  = 0.1514591E+01-0.151E+01


--------------------------------------------------------------------------------------------------------


    POTLOK:  cpu time    0.2505: real time    0.7803


--------------------------------------------------------------------------------------------------------




--------------------------------------------------------------------------------------------------------


  
 reached required accuracy - stopping structural energy minimisation
     LOOP+:  cpu time   10.8801: real time   32.7322
    4ORBIT:  cpu time    0.0000: real time    0.0000
 


 total charge     
 
# of ion       s       p       d       tot
------------------------------------------
    1        2.035   0.082   0.000   2.117
    2        2.035   0.082   0.000   2.117
    3        1.534   3.497   0.000   5.031
--------------------------------------------------
tot          5.604   3.661   0.000   9.265
 


 magnetization (x)
 
# of ion       s       p       d       tot
------------------------------------------
    1       -0.000   0.000   0.000   0.000
    2       -0.000   0.000   0.000   0.000
    3        0.000   0.000   0.000   0.000
--------------------------------------------------
tot         -0.000   0.000   0.000   0.000
 
 BZINTS: Fermi energy:  1.453690; 12.000000 electrons
         Band energy:-193.197460;  BLOECHL correction:  0.000000

 total amount of memory used by VASP MPI-rank0    35724. kBytes
=======================================================================

   base      :      30000. kBytes
   nonlr-proj:       1030. kBytes
   fftplans  :        407. kBytes
   grid      :       2555. kBytes
   one-center:         18. kBytes
   wavefun   :       1714. kBytes
 
  
  
 General timing and accounting informations for this job:
 ========================================================
  
                  Total CPU time used (sec):       70.712
                            User time (sec):       63.710
                          System time (sec):        7.002
                         Elapsed time (sec):      214.289
  
                   Maximum memory used (kb):       79432.
                   Average memory used (kb):           0.
  
                          Minor page faults:        40254
                          Major page faults:            0
                 Voluntary context switches:        46998
