 running on   24 total cores
 distrk:  each k-point on   24 cores,    1 groups
 distr:  one band on    1 cores,   24 groups
 using from now: INCAR     
 vasp.5.4.4.18Apr17-6-g9f103f2a35 (build Aug 12 2020 11:57:02) complex          
  
 POSCAR found type information on POSCAR  Li O 
 POSCAR found :  2 types and       3 ions
 scaLAPACK will be used

 ----------------------------------------------------------------------------- 
|                                                                             |
|           W    W    AA    RRRRR   N    N  II  N    N   GGGG   !!!           |
|           W    W   A  A   R    R  NN   N  II  NN   N  G    G  !!!           |
|           W    W  A    A  R    R  N N  N  II  N N  N  G       !!!           |
|           W WW W  AAAAAA  RRRRR   N  N N  II  N  N N  G  GGG   !            |
|           WW  WW  A    A  R   R   N   NN  II  N   NN  G    G                |
|           W    W  A    A  R    R  N    N  II  N    N   GGGG   !!!           |
|                                                                             |
|      For optimal performance we recommend to set                            |
|        NCORE= 4 - approx SQRT( number of cores)                             |
|      NCORE specifies how many cores store one orbital (NPAR=cpu/NCORE).     |
|      This setting can  greatly improve the performance of VASP for DFT.     |
|      The default,   NCORE=1            might be grossly inefficient         |
|      on modern multi-core architectures or massively parallel machines.     |
|      Do your own testing !!!!                                               |
|      Unfortunately you need to use the default for GW and RPA calculations. |
|      (for HF NCORE is supported but not extensively tested yet)             |
|                                                                             |
 ----------------------------------------------------------------------------- 


 ----------------------------------------------------------------------------- 
|                                                                             |
|  ADVICE TO THIS USER RUNNING 'VASP/VAMP'   (HEAR YOUR MASTER'S VOICE ...):  |
|                                                                             |
|      You have a (more or less) 'small supercell' and for smaller cells      |
|      it is recommended  to use the reciprocal-space projection scheme!      |
|      The real space optimization is not  efficient for small cells and it   |
|      is also less accurate ...                                              |
|      Therefore set LREAL=.FALSE. in the  INCAR file                         |
|                                                                             |
 ----------------------------------------------------------------------------- 

 LDA part: xc-table for Pade appr. of Perdew
 generate k-points for:   12   12   12
 POSCAR, INCAR and KPOINTS ok, starting setup
 FFT: planning ...
 WAVECAR not read
 entering main loop
       N       E                     dE             d eps       ncg     rms          rms(c)
DAV:   1     0.277667771223E+01    0.27767E+01   -0.69469E+03  6936   0.539E+02
DAV:   2    -0.160759481912E+02   -0.18853E+02   -0.18853E+02 10992   0.560E+01
DAV:   3    -0.161197195663E+02   -0.43771E-01   -0.43771E-01  6912   0.424E+00
DAV:   4    -0.161198008158E+02   -0.81249E-04   -0.81249E-04 13152   0.131E-01
DAV:   5    -0.161198008172E+02   -0.13702E-08   -0.13699E-08  7056   0.470E-04    0.747E+00
RMM:   6    -0.144069752242E+02    0.17128E+01   -0.10326E+00  6912   0.372E+00    0.301E+00
RMM:   7    -0.143489614179E+02    0.58014E-01   -0.54941E-02  6920   0.866E-01    0.143E+00
RMM:   8    -0.143467794709E+02    0.21819E-02   -0.63682E-02  6927   0.113E+00    0.241E-01
RMM:   9    -0.143451747425E+02    0.16047E-02   -0.17201E-03  6639   0.163E-01    0.159E-01
RMM:  10    -0.143451908126E+02   -0.16070E-04   -0.58111E-04  6637   0.105E-01
   1 F= -.14345191E+02 E0= -.14345191E+02  d E =-.143452E+02  mag=     0.0000
 curvature:   0.00 expect dE= 0.000E+00 dE for cont linesearch  0.000E+00
 trial: gam= 0.00000 g(F)=  0.533E-46 g(S)=  0.315E-02 ort = 0.000E+00 (trialstep = 0.100E+01)
 search vector abs. value=  0.315E-02
 bond charge predicted
       N       E                     dE             d eps       ncg     rms          rms(c)
DAV:   1    -0.143581776607E+02   -0.13003E-01   -0.22838E-01  9408   0.175E+00    0.811E-01
RMM:   2    -0.143485122542E+02    0.96654E-02   -0.12334E-02  6659   0.390E-01    0.246E-01
RMM:   3    -0.143476230120E+02    0.88924E-03   -0.17180E-04  6266   0.643E-02    0.135E-01
RMM:   4    -0.143474724500E+02    0.15056E-03   -0.11919E-04  6162   0.511E-02    0.130E-02
RMM:   5    -0.143474717420E+02    0.70801E-06   -0.22058E-05  4329   0.216E-02
   2 F= -.14347472E+02 E0= -.14347472E+02  d E =-.228093E-02  mag=    -0.0000
 trial-energy change:   -0.002281  1 .order   -0.002234   -0.003145   -0.001323
 step:   1.7264(harm=  1.7264)  dis= 0.00000  next Energy=   -14.347906 (dE=-0.271E-02)
 bond charge predicted
       N       E                     dE             d eps       ncg     rms          rms(c)
DAV:   1    -0.143536230998E+02   -0.61506E-02   -0.11931E-01  6960   0.127E+00    0.587E-01
RMM:   2    -0.143485595858E+02    0.50635E-02   -0.63646E-03  6662   0.291E-01    0.177E-01
RMM:   3    -0.143481027432E+02    0.45684E-03   -0.73477E-05  5195   0.462E-02    0.981E-02
RMM:   4    -0.143480216304E+02    0.81113E-04   -0.71023E-05  5391   0.384E-02
   3 F= -.14348022E+02 E0= -.14348022E+02  d E =-.283082E-02  mag=    -0.0000
 curvature:  -0.86 expect dE=-0.163E-04 dE for cont linesearch -0.163E-04
 trial: gam=-0.07145 g(F)=  0.730E-48 g(S)=  0.189E-04 ort = 0.244E-03 (trialstep = 0.115E+01)
 search vector abs. value=  0.113E-06
 reached required accuracy - stopping structural energy minimisation
