PROCAR lm decomposed
# of k-points:   72         # of bands:   24         # of ions:    3

 k-point     1 :    0.00000000 0.00000000 0.00000000     weight = 0.00057870

band     1 # energy  -41.68443161 # occ.  1.00000000
 
ion      s     py     pz     px    dxy    dyz    dz2    dxz  x2-y2    tot
    1  0.490  0.000  0.000  0.000  0.000  0.000  0.000  0.000  0.000  0.490
    2  0.490  0.000  0.000  0.000  0.000  0.000  0.000  0.000  0.000  0.490
    3  0.001  0.000  0.000  0.000  0.000  0.000  0.000  0.000  0.000  0.001
tot    0.982  0.000  0.000  0.000  0.000  0.000  0.000  0.000  0.000  0.982
 
band     2 # energy  -41.35897097 # occ.  1.00000000
 
ion      s     py     pz     px    dxy    dyz    dz2    dxz  x2-y2    tot
    1  0.497  0.000  0.000  0.000  0.000  0.000  0.000  0.000  0.000  0.497
    2  0.497  0.000  0.000  0.000  0.000  0.000  0.000  0.000  0.000  0.497
    3  0.000  0.000  0.000  0.000  0.000  0.000  0.000  0.000  0.000  0.000
tot    0.994  0.000  0.000  0.000  0.000  0.000  0.000  0.000  0.000  0.994
 
band     3 # energy  -14.11956250 # occ.  1.00000000
 
ion      s     py     pz     px    dxy    dyz    dz2    dxz  x2-y2    tot
    1  0.013  0.000  0.000  0.000  0.000  0.000  0.000  0.000  0.000  0.013
    2  0.013  0.000  0.000  0.000  0.000  0.000  0.000  0.000  0.000  0.013
    3  0.736  0.000  0.000  0.000  0.000  0.000  0.000  0.000  0.000  0.736
tot    0.762  0.000  0.000  0.000  0.000  0.000  0.000  0.000  0.000  0.762
 
band     4 # energy    1.32217920 # occ.  1.00000000
 
ion      s     py     pz     px    dxy    dyz    dz2    dxz  x2-y2    tot
    1  0.000  0.001  0.001  0.001  0.000  0.000  0.000  0.000  0.000  0.004
    2  0.000  0.001  0.001  0.001  0.000  0.000  0.000  0.000  0.000  0.004
    3  0.000  0.236  0.236  0.236  0.000  0.000  0.000  0.000  0.000  0.708
tot    0.000  0.238  0.238  0.238  0.000  0.000  0.000  0.000  0.000  0.715
 
band     5 # energy    1.32218096 # occ.  1.00000000
 
ion      s     py     pz     px    dxy    dyz    dz2    dxz  x2-y2    tot
    1  0.000  0.000  0.001  0.002  0.000  0.000  0.000  0.000  0.000  0.004
    2  0.000  0.000  0.001  0.002  0.000  0.000  0.000  0.000  0.000  0.004
    3  0.000  0.054  0.197  0.456  0.000  0.000  0.000  0.000  0.000  0.708
tot    0.000  0.054  0.200  0.461  0.000  0.000  0.000  0.000  0.000  0.715
 
band     6 # energy    1.32218096 # occ.  1.00000000
 
ion      s     py     pz     px    dxy    dyz    dz2    dxz  x2-y2    tot
    1  0.000  0.002  0.001  0.000  0.000  0.000  0.000  0.000  0.000  0.004
    2  0.000  0.002  0.001  0.000  0.000  0.000  0.000  0.000  0.000  0.004
    3  0.000  0.418  0.274  0.015  0.000  0.000  0.000  0.000  0.000  0.708
tot    0.000  0.423  0.277  0.016  0.000  0.000  0.000  0.000  0.000  0.715
 
band     7 # energy    6.56683336 # occ.  0.00000000
 
ion      s     py     pz     px    dxy    dyz    dz2    dxz  x2-y2    tot
    1  0.078  0.000  0.000  0.000  0.000  0.000  0.000  0.000  0.000  0.078
    2  0.078  0.000  0.000  0.000  0.000  0.000  0.000  0.000  0.000  0.078
    3  0.145  0.000  0.000  0.000  0.000  0.000  0.000  0.000  0.000  0.145
tot    0.300  0.000  0.000  0.000  0.000  0.000  0.000  0.000  0.000  0.300
 
band     8 # energy   13.22810004 # occ.  0.00000000
 
ion      s     py     pz     px    dxy    dyz    dz2    dxz  x2-y2    tot
    1  0.000  0.114  0.005  0.140  0.000  0.000  0.000  0.000  0.000  0.259
    2  0.000  0.114  0.005  0.140  0.000  0.000  0.000  0.000  0.000  0.259
    3  0.000  0.000  0.000  0.000  0.000  0.000  0.000  0.000  0.000  0.000
tot    0.000  0.227  0.010  0.280  0.000  0.000  0.000  0.000  0.000  0.518
 
band     9 # energy   13.22810004 # occ.  0.00000000
 
ion      s     py     pz     px    dxy    dyz    dz2    dxz  x2-y2    tot
    1  0.000  0.059  0.167  0.032  0.000  0.000  0.000  0.000  0.000  0.259
    2  0.000  0.059  0.167  0.032  0.000  0.000  0.000  0.000  0.000  0.259
    3  0.000  0.000  0.000  0.000  0.000  0.000  0.000  0.000  0.000  0.000
tot    0.000  0.118  0.335  0.065  0.000  0.000  0.000  0.000  0.000  0.518
 
band    10 # energy   13.22813858 # occ.  0.00000000
 
ion      s     py     pz     px    dxy    dyz    dz2    dxz  x2-y2    tot
    1  0.000  0.086  0.086  0.086  0.000  0.000  0.000  0.000  0.000  0.259
    2  0.000  0.086  0.086  0.086  0.000  0.000  0.000  0.000  0.000  0.259
    3  0.000  0.000  0.000  0.000  0.000  0.000  0.000  0.000  0.000  0.000
tot    0.000  0.173  0.173  0.173  0.000  0.000  0.000  0.000  0.000  0.518
 
band    11 # energy   20.27062222 # occ.  0.00000000
 
ion      s     py     pz     px    dxy    dyz    dz2    dxz  x2-y2    tot
    1  0.000  0.009  0.105  0.102  0.000  0.000  0.000  0.000  0.000  0.216
    2  0.000  0.009  0.105  0.102  0.000  0.000  0.000  0.000  0.000  0.216
    3  0.000  0.000  0.005  0.005  0.000  0.000  0.000  0.000  0.000  0.010
tot    0.000  0.019  0.214  0.209  0.000  0.000  0.000  0.000  0.000  0.443
 
band    12 # energy   20.27062222 # occ.  0.00000000
 
ion      s     py     pz     px    dxy    dyz    dz2    dxz  x2-y2    tot
    1  0.000  0.135  0.039  0.042  0.000  0.000  0.000  0.000  0.000  0.216
    2  0.000  0.135  0.039  0.042  0.000  0.000  0.000  0.000  0.000  0.216
    3  0.000  0.006  0.002  0.002  0.000  0.000  0.000  0.000  0.000  0.010
tot    0.000  0.276  0.081  0.086  0.000  0.000  0.000  0.000  0.000  0.443
 
band    13 # energy   20.27066829 # occ.  0.00000000
 
ion      s     py     pz     px    dxy    dyz    dz2    dxz  x2-y2    tot
    1  0.000  0.072  0.072  0.072  0.000  0.000  0.000  0.000  0.000  0.216
    2  0.000  0.072  0.072  0.072  0.000  0.000  0.000  0.000  0.000  0.216
    3  0.000  0.003  0.003  0.003  0.000  0.000  0.000  0.000  0.000  0.010
tot    0.000  0.148  0.148  0.148  0.000  0.000  0.000  0.000  0.000  0.443
 
band    14 # energy   22.60666718 # occ.  0.00000000
 
ion      s     py     pz     px    dxy    dyz    dz2    dxz  x2-y2    tot
    1  0.000  0.000  0.000  0.000  0.000  0.000  0.000  0.000  0.000  0.000
    2  0.000  0.000  0.000  0.000  0.000  0.000  0.000  0.000  0.000  0.000
    3  0.000  0.000  0.000  0.000  0.000  0.000  0.000  0.000  0.000  0.000
tot    0.000  0.000  0.000  0.000  0.000  0.000  0.000  0.000  0.000  0.000
 
band    15 # energy   22.60666719 # occ.  0.00000000
 
ion      s     py     pz     px    dxy    dyz    dz2    dxz  x2-y2    tot
    1  0.000  0.000  0.000  0.000  0.000  0.000  0.000  0.000  0.000  0.000
    2  0.000  0.000  0.000  0.000  0.000  0.000  0.000  0.000  0.000  0.000
    3  0.000  0.000  0.000  0.000  0.000  0.000  0.000  0.000  0.000  0.000
tot    0.000  0.000  0.000  0.000  0.000  0.000  0.000  0.000  0.000  0.000
 
band    16 # energy   28.86683312 # occ.  0.00000000
 
ion      s     py     pz     px    dxy    dyz    dz2    dxz  x2-y2    tot
    1  0.109  0.000  0.000  0.000  0.000  0.000  0.000  0.000  0.000  0.109
    2  0.109  0.000  0.000  0.000  0.000  0.000  0.000  0.000  0.000  0.109
    3  0.058  0.000  0.000  0.000  0.000  0.000  0.000  0.000  0.000  0.058
tot    0.276  0.000  0.000  0.000  0.000  0.000  0.000  0.000  0.000  0.276
 
band    17 # energy   29.03567731 # occ.  0.00000000
 
ion      s     py     pz     px    dxy    dyz    dz2    dxz  x2-y2    tot
    1  0.000  0.142  0.280  0.023  0.000  0.000  0.000  0.000  0.000  0.445
    2  0.000  0.142  0.280  0.023  0.000  0.000  0.000  0.000  0.000  0.445
    3  0.000  0.074  0.146  0.012  0.000  0.000  0.000  0.000  0.000  0.233
tot    0.000  0.358  0.707  0.059  0.000  0.000  0.000  0.000  0.000  1.123
 
band    18 # energy   29.03567731 # occ.  0.00000000
 
ion      s     py     pz     px    dxy    dyz    dz2    dxz  x2-y2    tot
    1  0.000  0.155  0.017  0.274  0.000  0.000  0.000  0.000  0.000  0.445
    2  0.000  0.155  0.017  0.274  0.000  0.000  0.000  0.000  0.000  0.445
    3  0.000  0.081  0.009  0.143  0.000  0.000  0.000  0.000  0.000  0.233
tot    0.000  0.391  0.042  0.690  0.000  0.000  0.000  0.000  0.000  1.123
 
band    19 # energy   29.03568957 # occ.  0.00000000
 
ion      s     py     pz     px    dxy    dyz    dz2    dxz  x2-y2    tot
    1  0.000  0.148  0.148  0.148  0.000  0.000  0.000  0.000  0.000  0.445
    2  0.000  0.148  0.148  0.148  0.000  0.000  0.000  0.000  0.000  0.445
    3  0.000  0.078  0.078  0.078  0.000  0.000  0.000  0.000  0.000  0.233
tot    0.000  0.374  0.374  0.374  0.000  0.000  0.000  0.000  0.000  1.123
 
band    20 # energy   32.84131819 # occ.  0.00000000
 
ion      s     py     pz     px    dxy    dyz    dz2    dxz  x2-y2    tot
    1  0.419  0.000  0.000  0.000  0.000  0.000  0.000  0.000  0.000  0.419
    2  0.419  0.000  0.000  0.000  0.000  0.000  0.000  0.000  0.000  0.419
    3  0.000  0.000  0.000  0.000  0.000  0.000  0.000  0.000  0.000  0.000
tot    0.838  0.000  0.000  0.000  0.000  0.000  0.000  0.000  0.000  0.838
 
band    21 # energy   47.59089739 # occ.  0.00000000
 
ion      s     py     pz     px    dxy    dyz    dz2    dxz  x2-y2    tot
    1  0.000  0.058  0.003  0.036  0.000  0.000  0.000  0.000  0.000  0.096
    2  0.000  0.058  0.003  0.036  0.000  0.000  0.000  0.000  0.000  0.096
    3  0.000  0.000  0.000  0.000  0.000  0.000  0.000  0.000  0.000  0.000
tot    0.000  0.116  0.006  0.072  0.000  0.000  0.000  0.000  0.000  0.193
 
band    22 # energy   47.59089759 # occ.  0.00000000
 
ion      s     py     pz     px    dxy    dyz    dz2    dxz  x2-y2    tot
    1  0.000  0.007  0.061  0.029  0.000  0.000  0.000  0.000  0.000  0.096
    2  0.000  0.007  0.061  0.029  0.000  0.000  0.000  0.000  0.000  0.096
    3  0.000  0.000  0.000  0.000  0.000  0.000  0.000  0.000  0.000  0.000
tot    0.000  0.014  0.121  0.058  0.000  0.000  0.000  0.000  0.000  0.193
 
band    23 # energy   47.59091467 # occ.  0.00000000
 
ion      s     py     pz     px    dxy    dyz    dz2    dxz  x2-y2    tot
    1  0.000  0.032  0.033  0.032  0.000  0.000  0.000  0.000  0.000  0.096
    2  0.000  0.032  0.033  0.032  0.000  0.000  0.000  0.000  0.000  0.096
    3  0.000  0.000  0.000  0.000  0.000  0.000  0.000  0.000  0.000  0.000
tot    0.000  0.064  0.066  0.063  0.000  0.000  0.000  0.000  0.000  0.193
 
band    24 # energy   49.79064773 # occ.  0.00000000
 
ion      s     py     pz     px    dxy    dyz    dz2    dxz  x2-y2    tot
    1  0.000  0.000  0.000  0.000  0.000  0.000  0.000  0.000  0.000  0.000
    2  0.000  0.000  0.000  0.000  0.000  0.000  0.000  0.000  0.000  0.000
    3  0.000  0.000  0.000  0.000  0.000  0.000  0.000  0.000  0.000  0.000
tot    0.000  0.000  0.000  0.000  0.000  0.000  0.000  0.000  0.000  0.000
 

 k-point     2 :    0.08333333 0.00000000 0.00000000     weight = 0.00462963

band     1 # energy  -41.67807184 # occ.  1.00000000
 
ion      s     py     pz     px    dxy    dyz    dz2    dxz  x2-y2    tot
    1  0.490  0.000  0.000  0.000  0.000  0.000  0.000  0.000  0.000  0.490
    2  0.490  0.000  0.000  0.000  0.000  0.000  0.000  0.000  0.000  0.490
    3  0.001  0.000  0.000  0.000  0.000  0.000  0.000  0.000  0.000  0.001
tot    0.982  0.000  0.000  0.000  0.000  0.000  0.000  0.000  0.000  0.982
 
band     2 # energy  -41.36329159 # occ.  1.00000000
 
ion      s     py     pz     px    dxy    dyz    dz2    dxz  x2-y2    tot
    1  0.497  0.000  0.000  0.000  0.000  0.000  0.000  0.000  0.000  0.497
    2  0.497  0.000  0.000  0.000  0.000  0.000  0.000  0.000  0.000  0.497
    3  0.000  0.000  0.000  0.000  0.000  0.000  0.000  0.000  0.000  0.000
tot    0.993  0.000  0.000  0.000  0.000  0.000  0.000  0.000  0.000  0.993
 
band     3 # energy  -14.10576047 # occ.  1.00000000
 
ion      s     py     pz     px    dxy    dyz    dz2    dxz  x2-y2    tot
    1  0.013  0.000  0.000  0.000  0.000  0.000  0.000  0.000  0.000  0.013
    2  0.013  0.000  0.000  0.000  0.000  0.000  0.000  0.000  0.000  0.013
    3  0.738  0.000  0.000  0.000  0.000  0.000  0.000  0.000  0.000  0.738
tot    0.763  0.000  0.000  0.000  0.000  0.000  0.000  0.000  0.000  0.763
 
band     4 # energy    1.08130586 # occ.  1.00000000
 
ion      s     py     pz     px    dxy    dyz    dz2    dxz  x2-y2    tot
    1  0.004  0.002  0.002  0.002  0.000  0.000  0.000  0.000  0.000  0.008
    2  0.004  0.002  0.002  0.002  0.000  0.000  0.000  0.000  0.000  0.008
    3  0.003  0.223  0.223  0.223  0.000  0.000  0.000  0.000  0.000  0.674
tot    0.010  0.227  0.227  0.227  0.000  0.000  0.000  0.000  0.000  0.690
 
band     5 # energy    1.28912421 # occ.  1.00000000
 
ion      s     py     pz     px    dxy    dyz    dz2    dxz  x2-y2    tot
    1  0.000  0.001  0.001  0.003  0.000  0.000  0.000  0.000  0.000  0.005
    2  0.000  0.001  0.001  0.003  0.000  0.000  0.000  0.000  0.000  0.005
    3  0.000  0.117  0.117  0.469  0.000  0.000  0.000  0.000  0.000  0.704
tot    0.000  0.119  0.119  0.475  0.000  0.000  0.000  0.000  0.000  0.713
 
band     6 # energy    1.28912567 # occ.  1.00000000
 
ion      s     py     pz     px    dxy    dyz    dz2    dxz  x2-y2    tot
    1  0.000  0.002  0.002  0.000  0.000  0.000  0.000  0.000  0.000  0.005
    2  0.000  0.002  0.002  0.000  0.000  0.000  0.000  0.000  0.000  0.005
    3  0.000  0.352  0.352  0.000  0.000  0.000  0.000  0.000  0.000  0.704
tot    0.000  0.357  0.357  0.000  0.000  0.000  0.000  0.000  0.000  0.713
 
band     7 # energy    6.76081612 # occ.  0.00000000
 
ion      s     py     pz     px    dxy    dyz    dz2    dxz  x2-y2    tot
    1  0.072  0.001  0.001  0.001  0.000  0.000  0.000  0.000  0.000  0.076
    2  0.072  0.001  0.001  0.001  0.000  0.000  0.000  0.000  0.000  0.076
    3  0.138  0.009  0.009  0.009  0.000  0.000  0.000  0.000  0.000  0.166
tot    0.282  0.012  0.012  0.012  0.000  0.000  0.000  0.000  0.000  0.318
 
band     8 # energy   13.24296153 # occ.  0.00000000
 
ion      s     py     pz     px    dxy    dyz    dz2    dxz  x2-y2    tot
    1  0.004  0.081  0.081  0.081  0.000  0.000  0.000  0.000  0.000  0.248
    2  0.004  0.081  0.081  0.081  0.000  0.000  0.000  0.000  0.000  0.248
    3  0.000  0.007  0.007  0.007  0.000  0.000  0.000  0.000  0.000  0.022
tot    0.008  0.170  0.170  0.170  0.000  0.000  0.000  0.000  0.000  0.518
 
band     9 # energy   13.33187193 # occ.  0.00000000
 
ion      s     py     pz     px    dxy    dyz    dz2    dxz  x2-y2    tot
    1  0.000  0.129  0.128  0.000  0.000  0.000  0.000  0.000  0.000  0.257
    2  0.000  0.129  0.128  0.000  0.000  0.000  0.000  0.000  0.000  0.257
    3  0.000  0.003  0.003  0.000  0.000  0.000  0.000  0.000  0.000  0.005
tot    0.000  0.260  0.260  0.000  0.000  0.000  0.000  0.000  0.000  0.520
 
band    10 # energy   13.33190653 # occ.  0.00000000
 
ion      s     py     pz     px    dxy    dyz    dz2    dxz  x2-y2    tot
    1  0.000  0.043  0.043  0.171  0.000  0.000  0.000  0.000  0.000  0.257
    2  0.000  0.043  0.043  0.171  0.000  0.000  0.000  0.000  0.000  0.257
    3  0.000  0.001  0.001  0.004  0.000  0.000  0.000  0.000  0.000  0.005
tot    0.000  0.086  0.087  0.346  0.000  0.000  0.000  0.000  0.000  0.520
 
band    11 # energy   19.46664153 # occ.  0.00000000
 
ion      s     py     pz     px    dxy    dyz    dz2    dxz  x2-y2    tot
    1  0.000  0.089  0.089  0.000  0.000  0.000  0.000  0.000  0.000  0.178
    2  0.000  0.089  0.089  0.000  0.000  0.000  0.000  0.000  0.000  0.178
    3  0.000  0.001  0.001  0.000  0.000  0.000  0.000  0.000  0.000  0.002
tot    0.000  0.179  0.179  0.000  0.000  0.000  0.000  0.000  0.000  0.358
 
band    12 # energy   19.46667349 # occ.  0.00000000
 
ion      s     py     pz     px    dxy    dyz    dz2    dxz  x2-y2    tot
    1  0.000  0.030  0.030  0.119  0.000  0.000  0.000  0.000  0.000  0.178
    2  0.000  0.030  0.030  0.119  0.000  0.000  0.000  0.000  0.000  0.178
    3  0.000  0.000  0.000  0.001  0.000  0.000  0.000  0.000  0.000  0.002
tot    0.000  0.060  0.060  0.239  0.000  0.000  0.000  0.000  0.000  0.358
 
band    13 # energy   20.50265091 # occ.  0.00000000
 
ion      s     py     pz     px    dxy    dyz    dz2    dxz  x2-y2    tot
    1  0.010  0.066  0.066  0.066  0.000  0.000  0.000  0.000  0.000  0.208
    2  0.010  0.066  0.066  0.066  0.000  0.000  0.000  0.000  0.000  0.208
    3  0.004  0.002  0.002  0.002  0.000  0.000  0.000  0.000  0.000  0.010
tot    0.025  0.134  0.134  0.134  0.000  0.000  0.000  0.000  0.000  0.427
 
band    14 # energy   23.74950112 # occ.  0.00000000
 
ion      s     py     pz     px    dxy    dyz    dz2    dxz  x2-y2    tot
    1  0.000  0.015  0.015  0.000  0.000  0.000  0.000  0.000  0.000  0.031
    2  0.000  0.015  0.015  0.000  0.000  0.000  0.000  0.000  0.000  0.031
    3  0.000  0.010  0.010  0.000  0.000  0.000  0.000  0.000  0.000  0.019
tot    0.000  0.040  0.040  0.000  0.000  0.000  0.000  0.000  0.000  0.081
 
band    15 # energy   23.74950916 # occ.  0.00000000
 
ion      s     py     pz     px    dxy    dyz    dz2    dxz  x2-y2    tot
    1  0.000  0.005  0.005  0.021  0.000  0.000  0.000  0.000  0.000  0.031
    2  0.000  0.005  0.005  0.021  0.000  0.000  0.000  0.000  0.000  0.031
    3  0.000  0.003  0.003  0.013  0.000  0.000  0.000  0.000  0.000  0.019
tot    0.000  0.013  0.013  0.054  0.000  0.000  0.000  0.000  0.000  0.081
 
band    16 # energy   28.01018841 # occ.  0.00000000
 
ion      s     py     pz     px    dxy    dyz    dz2    dxz  x2-y2    tot
    1  0.026  0.122  0.122  0.122  0.000  0.000  0.000  0.000  0.000  0.393
    2  0.026  0.122  0.122  0.122  0.000  0.000  0.000  0.000  0.000  0.393
    3  0.037  0.033  0.033  0.033  0.000  0.000  0.000  0.000  0.000  0.136
tot    0.089  0.278  0.278  0.278  0.000  0.000  0.000  0.000  0.000  0.923
 
band    17 # energy   29.05667671 # occ.  0.00000000
 
ion      s     py     pz     px    dxy    dyz    dz2    dxz  x2-y2    tot
    1  0.000  0.228  0.228  0.000  0.000  0.000  0.000  0.000  0.000  0.455
    2  0.000  0.228  0.228  0.000  0.000  0.000  0.000  0.000  0.000  0.455
    3  0.000  0.109  0.109  0.000  0.000  0.000  0.000  0.000  0.000  0.217
tot    0.000  0.564  0.564  0.000  0.000  0.000  0.000  0.000  0.000  1.128
 
band    18 # energy   29.05668824 # occ.  0.00000000
 
ion      s     py     pz     px    dxy    dyz    dz2    dxz  x2-y2    tot
    1  0.000  0.076  0.076  0.304  0.000  0.000  0.000  0.000  0.000  0.455
    2  0.000  0.076  0.076  0.304  0.000  0.000  0.000  0.000  0.000  0.455
    3  0.000  0.036  0.036  0.145  0.000  0.000  0.000  0.000  0.000  0.217
tot    0.000  0.188  0.188  0.752  0.000  0.000  0.000  0.000  0.000  1.128
 
band    19 # energy   29.98869266 # occ.  0.00000000
 
ion      s     py     pz     px    dxy    dyz    dz2    dxz  x2-y2    tot
    1  0.076  0.031  0.031  0.031  0.000  0.000  0.000  0.000  0.000  0.168
    2  0.076  0.031  0.031  0.031  0.000  0.000  0.000  0.000  0.000  0.168
    3  0.019  0.040  0.040  0.040  0.000  0.000  0.000  0.000  0.000  0.138
tot    0.171  0.101  0.101  0.101  0.000  0.000  0.000  0.000  0.000  0.474
 
band    20 # energy   32.74793413 # occ.  0.00000000
 
ion      s     py     pz     px    dxy    dyz    dz2    dxz  x2-y2    tot
    1  0.403  0.015  0.015  0.015  0.000  0.000  0.000  0.000  0.000  0.448
    2  0.403  0.015  0.015  0.015  0.000  0.000  0.000  0.000  0.000  0.448
    3  0.000  0.000  0.000  0.000  0.000  0.000  0.000  0.000  0.000  0.000
tot    0.807  0.030  0.030  0.030  0.000  0.000  0.000  0.000  0.000  0.897
 
band    21 # energy   45.67833974 # occ.  0.00000000
 
ion      s     py     pz     px    dxy    dyz    dz2    dxz  x2-y2    tot
    1  0.000  0.019  0.019  0.000  0.000  0.000  0.000  0.000  0.000  0.037
    2  0.000  0.019  0.019  0.000  0.000  0.000  0.000  0.000  0.000  0.037
    3  0.000  0.004  0.004  0.000  0.000  0.000  0.000  0.000  0.000  0.008
tot    0.000  0.042  0.041  0.000  0.000  0.000  0.000  0.000  0.000  0.083
 
band    22 # energy   45.67835914 # occ.  0.00000000
 
ion      s     py     pz     px    dxy    dyz    dz2    dxz  x2-y2    tot
    1  0.000  0.006  0.006  0.025  0.000  0.000  0.000  0.000  0.000  0.037
    2  0.000  0.006  0.006  0.025  0.000  0.000  0.000  0.000  0.000  0.037
    3  0.000  0.001  0.001  0.006  0.000  0.000  0.000  0.000  0.000  0.008
tot    0.000  0.014  0.014  0.055  0.000  0.000  0.000  0.000  0.000  0.083
 
band    23 # energy   47.57849349 # occ.  0.00000000
 
ion      s     py     pz     px    dxy    dyz    dz2    dxz  x2-y2    tot
    1  0.001  0.033  0.033  0.033  0.000  0.000  0.000  0.000  0.000  0.099
    2  0.001  0.033  0.033  0.033  0.000  0.000  0.000  0.000  0.000  0.099
    3  0.002  0.010  0.010  0.010  0.000  0.000  0.000  0.000  0.000  0.032
tot    0.004  0.075  0.075  0.075  0.000  0.000  0.000  0.000  0.000  0.230
 
band    24 # energy   48.98048849 # occ.  0.00000000
 
ion      s     py     pz     px    dxy    dyz    dz2    dxz  x2-y2    tot
    1  0.000  0.026  0.021  0.000  0.000  0.000  0.000  0.000  0.000  0.048
    2  0.000  0.026  0.021  0.000  0.000  0.000  0.000  0.000  0.000  0.048
    3  0.000  0.000  0.000  0.000  0.000  0.000  0.000  0.000  0.000  0.001
tot    0.000  0.053  0.042  0.001  0.000  0.000  0.000  0.000  0.000  0.096
 

 k-point     3 :    0.16666667 0.00000000 0.00000000     weight = 0.00462963

band     1 # energy  -41.65929559 # occ.  1.00000000
 
ion      s     py     pz     px    dxy    dyz    dz2    dxz  x2-y2    tot
    1  0.491  0.000  0.000  0.000  0.000  0.000  0.000  0.000  0.000  0.491
    2  0.491  0.000  0.000  0.000  0.000  0.000  0.000  0.000  0.000  0.491
    3  0.001  0.000  0.000  0.000  0.000  0.000  0.000  0.000  0.000  0.001
tot    0.983  0.000  0.000  0.000  0.000  0.000  0.000  0.000  0.000  0.983
 
band     2 # energy  -41.37734590 # occ.  1.00000000
 
ion      s     py     pz     px    dxy    dyz    dz2    dxz  x2-y2    tot
    1  0.496  0.000  0.000  0.000  0.000  0.000  0.000  0.000  0.000  0.496
    2  0.496  0.000  0.000  0.000  0.000  0.000  0.000  0.000  0.000  0.496
    3  0.000  0.000  0.000  0.000  0.000  0.000  0.000  0.000  0.000  0.000
tot    0.993  0.000  0.000  0.000  0.000  0.000  0.000  0.000  0.000  0.993
 
band     3 # energy  -14.06759302 # occ.  1.00000000
 
ion      s     py     pz     px    dxy    dyz    dz2    dxz  x2-y2    tot
    1  0.011  0.000  0.000  0.000  0.000  0.000  0.000  0.000  0.000  0.011
    2  0.011  0.000  0.000  0.000  0.000  0.000  0.000  0.000  0.000  0.011
    3  0.742  0.000  0.000  0.000  0.000  0.000  0.000  0.000  0.000  0.742
tot    0.764  0.000  0.000  0.000  0.000  0.000  0.000  0.000  0.000  0.765
 
band     4 # energy    0.48668816 # occ.  1.00000000
 
ion      s     py     pz     px    dxy    dyz    dz2    dxz  x2-y2    tot
    1  0.010  0.002  0.002  0.002  0.000  0.000  0.000  0.000  0.000  0.017
    2  0.010  0.002  0.002  0.002  0.000  0.000  0.000  0.000  0.000  0.017
    3  0.008  0.198  0.198  0.198  0.000  0.000  0.000  0.000  0.000  0.603
tot    0.028  0.203  0.203  0.203  0.000  0.000  0.000  0.000  0.000  0.637
 
band     5 # energy    1.20151510 # occ.  1.00000000
 
ion      s     py     pz     px    dxy    dyz    dz2    dxz  x2-y2    tot
    1  0.000  0.001  0.001  0.004  0.000  0.000  0.000  0.000  0.000  0.006
    2  0.000  0.001  0.001  0.004  0.000  0.000  0.000  0.000  0.000  0.006
    3  0.000  0.116  0.116  0.463  0.000  0.000  0.000  0.000  0.000  0.695
tot    0.000  0.118  0.118  0.472  0.000  0.000  0.000  0.000  0.000  0.708
 
band     6 # energy    1.20151630 # occ.  1.00000000
 
ion      s     py     pz     px    dxy    dyz    dz2    dxz  x2-y2    tot
    1  0.000  0.003  0.003  0.000  0.000  0.000  0.000  0.000  0.000  0.006
    2  0.000  0.003  0.003  0.000  0.000  0.000  0.000  0.000  0.000  0.006
    3  0.000  0.348  0.347  0.000  0.000  0.000  0.000  0.000  0.000  0.695
tot    0.000  0.354  0.354  0.000  0.000  0.000  0.000  0.000  0.000  0.708
 
band     7 # energy    7.26977973 # occ.  0.00000000
 
ion      s     py     pz     px    dxy    dyz    dz2    dxz  x2-y2    tot
    1  0.061  0.004  0.004  0.004  0.000  0.000  0.000  0.000  0.000  0.073
    2  0.061  0.004  0.004  0.004  0.000  0.000  0.000  0.000  0.000  0.073
    3  0.121  0.027  0.027  0.027  0.000  0.000  0.000  0.000  0.000  0.204
tot    0.244  0.036  0.036  0.036  0.000  0.000  0.000  0.000  0.000  0.350
 
band     8 # energy   13.21949611 # occ.  0.00000000
 
ion      s     py     pz     px    dxy    dyz    dz2    dxz  x2-y2    tot
    1  0.015  0.068  0.068  0.068  0.000  0.000  0.000  0.000  0.000  0.220
    2  0.015  0.068  0.068  0.068  0.000  0.000  0.000  0.000  0.000  0.220
    3  0.003  0.024  0.024  0.024  0.000  0.000  0.000  0.000  0.000  0.076
tot    0.033  0.161  0.161  0.161  0.000  0.000  0.000  0.000  0.000  0.516
 
band     9 # energy   13.56160392 # occ.  0.00000000
 
ion      s     py     pz     px    dxy    dyz    dz2    dxz  x2-y2    tot
    1  0.000  0.125  0.125  0.000  0.000  0.000  0.000  0.000  0.000  0.250
    2  0.000  0.125  0.125  0.000  0.000  0.000  0.000  0.000  0.000  0.250
    3  0.000  0.008  0.008  0.000  0.000  0.000  0.000  0.000  0.000  0.017
tot    0.000  0.258  0.259  0.000  0.000  0.000  0.000  0.000  0.000  0.517
 
band    10 # energy   13.56163901 # occ.  0.00000000
 
ion      s     py     pz     px    dxy    dyz    dz2    dxz  x2-y2    tot
    1  0.000  0.042  0.041  0.167  0.000  0.000  0.000  0.000  0.000  0.250
    2  0.000  0.042  0.041  0.167  0.000  0.000  0.000  0.000  0.000  0.250
    3  0.000  0.003  0.003  0.011  0.000  0.000  0.000  0.000  0.000  0.017
tot    0.000  0.087  0.085  0.345  0.000  0.000  0.000  0.000  0.000  0.517
 
band    11 # energy   18.48576329 # occ.  0.00000000
 
ion      s     py     pz     px    dxy    dyz    dz2    dxz  x2-y2    tot
    1  0.000  0.087  0.087  0.000  0.000  0.000  0.000  0.000  0.000  0.174
    2  0.000  0.087  0.087  0.000  0.000  0.000  0.000  0.000  0.000  0.174
    3  0.000  0.001  0.001  0.000  0.000  0.000  0.000  0.000  0.000  0.003
tot    0.000  0.175  0.175  0.000  0.000  0.000  0.000  0.000  0.000  0.350
 
band    12 # energy   18.48579073 # occ.  0.00000000
 
ion      s     py     pz     px    dxy    dyz    dz2    dxz  x2-y2    tot
    1  0.000  0.029  0.029  0.116  0.000  0.000  0.000  0.000  0.000  0.174
    2  0.000  0.029  0.029  0.116  0.000  0.000  0.000  0.000  0.000  0.174
    3  0.000  0.000  0.000  0.002  0.000  0.000  0.000  0.000  0.000  0.003
tot    0.000  0.058  0.058  0.233  0.000  0.000  0.000  0.000  0.000  0.350
 
band    13 # energy   21.14500534 # occ.  0.00000000
 
ion      s     py     pz     px    dxy    dyz    dz2    dxz  x2-y2    tot
    1  0.037  0.050  0.050  0.050  0.000  0.000  0.000  0.000  0.000  0.187
    2  0.037  0.050  0.050  0.050  0.000  0.000  0.000  0.000  0.000  0.187
    3  0.014  0.000  0.000  0.000  0.000  0.000  0.000  0.000  0.000  0.014
tot    0.089  0.100  0.100  0.100  0.000  0.000  0.000  0.000  0.000  0.387
 
band    14 # energy   25.68476177 # occ.  0.00000000
 
ion      s     py     pz     px    dxy    dyz    dz2    dxz  x2-y2    tot
    1  0.000  0.006  0.006  0.000  0.000  0.000  0.000  0.000  0.000  0.013
    2  0.000  0.006  0.006  0.000  0.000  0.000  0.000  0.000  0.000  0.013
    3  0.000  0.033  0.034  0.000  0.000  0.000  0.000  0.000  0.000  0.067
tot    0.000  0.046  0.046  0.000  0.000  0.000  0.000  0.000  0.000  0.093
 
band    15 # energy   25.68477086 # occ.  0.00000000
 
ion      s     py     pz     px    dxy    dyz    dz2    dxz  x2-y2    tot
    1  0.000  0.002  0.002  0.009  0.000  0.000  0.000  0.000  0.000  0.013
    2  0.000  0.002  0.002  0.009  0.000  0.000  0.000  0.000  0.000  0.013
    3  0.000  0.011  0.011  0.045  0.000  0.000  0.000  0.000  0.000  0.067
tot    0.000  0.016  0.015  0.062  0.000  0.000  0.000  0.000  0.000  0.093
 
band    16 # energy   27.19280118 # occ.  0.00000000
 
ion      s     py     pz     px    dxy    dyz    dz2    dxz  x2-y2    tot
    1  0.004  0.166  0.166  0.166  0.000  0.000  0.000  0.000  0.000  0.501
    2  0.004  0.166  0.166  0.166  0.000  0.000  0.000  0.000  0.000  0.501
    3  0.037  0.028  0.028  0.028  0.000  0.000  0.000  0.000  0.000  0.121
tot    0.044  0.360  0.360  0.360  0.000  0.000  0.000  0.000  0.000  1.123
 
band    17 # energy   29.19885779 # occ.  0.00000000
 
ion      s     py     pz     px    dxy    dyz    dz2    dxz  x2-y2    tot
    1  0.000  0.244  0.244  0.000  0.000  0.000  0.000  0.000  0.000  0.488
    2  0.000  0.244  0.244  0.000  0.000  0.000  0.000  0.000  0.000  0.488
    3  0.000  0.077  0.077  0.000  0.000  0.000  0.000  0.000  0.000  0.154
tot    0.000  0.565  0.565  0.000  0.000  0.000  0.000  0.000  0.000  1.130
 
band    18 # energy   29.19887187 # occ.  0.00000000
 
ion      s     py     pz     px    dxy    dyz    dz2    dxz  x2-y2    tot
    1  0.000  0.081  0.081  0.325  0.000  0.000  0.000  0.000  0.000  0.488
    2  0.000  0.081  0.081  0.325  0.000  0.000  0.000  0.000  0.000  0.488
    3  0.000  0.026  0.026  0.103  0.000  0.000  0.000  0.000  0.000  0.154
tot    0.000  0.188  0.188  0.754  0.000  0.000  0.000  0.000  0.000  1.130
 
band    19 # energy   31.09665654 # occ.  0.00000000
 
ion      s     py     pz     px    dxy    dyz    dz2    dxz  x2-y2    tot
    1  0.108  0.004  0.004  0.004  0.000  0.000  0.000  0.000  0.000  0.121
    2  0.108  0.004  0.004  0.004  0.000  0.000  0.000  0.000  0.000  0.121
    3  0.010  0.029  0.029  0.029  0.000  0.000  0.000  0.000  0.000  0.098
tot    0.227  0.038  0.038  0.038  0.000  0.000  0.000  0.000  0.000  0.340
 
band    20 # energy   32.52948670 # occ.  0.00000000
 
ion      s     py     pz     px    dxy    dyz    dz2    dxz  x2-y2    tot
    1  0.335  0.051  0.051  0.051  0.000  0.000  0.000  0.000  0.000  0.488
    2  0.335  0.051  0.051  0.051  0.000  0.000  0.000  0.000  0.000  0.488
    3  0.000  0.004  0.004  0.004  0.000  0.000  0.000  0.000  0.000  0.012
tot    0.670  0.106  0.106  0.106  0.000  0.000  0.000  0.000  0.000  0.988
 
band    21 # energy   42.55899558 # occ.  0.00000000
 