<?xml version="1.0" encoding="ISO-8859-1"?>
<modeling>
 <generator>
  <i name="program" type="string">vasp </i>
  <i name="version" type="string">5.4.4.18Apr17-6-g9f103f2a35  </i>
  <i name="subversion" type="string">(build Aug 12 2020 11:57:02) complex            parallel </i>
  <i name="platform" type="string">LinuxIFC </i>
  <i name="date" type="string">2021 01 31 </i>
  <i name="time" type="string">04:38:06 </i>
 </generator>
 <incar>
  <i type="string" name="PREC">accurate</i>
  <i type="string" name="ALGO"> Fast</i>
  <i type="int" name="ISPIN">     2</i>
  <i type="int" name="NELM">   100</i>
  <i type="int" name="IBRION">     2</i>
  <i name="EDIFF">      0.00015000</i>
  <i type="int" name="NSW">    99</i>
  <i type="int" name="ISIF">     3</i>
  <i name="ENCUT">    520.00000000</i>
  <v name="MAGMOM">      0.00000000      0.00000000      0.00000000</v>
  <i type="string" name="LREAL"> Auto</i>
  <i type="int" name="ISMEAR">    -5</i>
  <i name="SIGMA">      0.05000000</i>
  <i type="logical" name="LWAVE"> F  </i>
  <i type="int" name="LORBIT">    11</i>
  <i type="logical" name="LASPH"> T  </i>
  <v type="int" name="KPOINT_BSE">    -1     0     0     0</v>
  <i type="int" name="NELM">   100</i>
  <i type="logical" name="LASPH"> T  </i>
 </incar>
 <structure name="primitive_cell" >
  <crystal>
   <varray name="basis" >
    <v>       0.00000000       2.32942100       2.32942100 </v>
    <v>       2.32942100       0.00000000       2.32942100 </v>
    <v>       2.32942100       2.32942100       0.00000000 </v>
   </varray>
   <i name="volume">     25.27981869 </i>
   <varray name="rec_basis" >
    <v>      -0.21464561       0.21464561       0.21464561 </v>
    <v>       0.21464561      -0.21464561       0.21464561 </v>
    <v>       0.21464561       0.21464561      -0.21464561 </v>
   </varray>
  </crystal>
  <varray name="positions" >
   <v>      -0.25000000      -0.25000000      -0.25000000 </v>
   <v>       0.00000000       0.00000000       0.00000000 </v>
   <v>       0.25000000       0.25000000       0.25000000 </v>
  </varray>
 </structure>
 <varray name="primitive_index" >
  <v type="int" >        1 </v>
  <v type="int" >        3 </v>
  <v type="int" >        2 </v>
 </varray>
 <kpoints>
  <generation param="Auto">
   <i name="subdivisionlength">     32.00000000 </i>
   <v type="int" name="divisions">      12       12       12 </v>
   <v name="usershift">      0.00000000       0.00000000       0.00000000 </v>
   <v name="genvec1">      0.08333333       0.00000000       0.00000000 </v>
   <v name="genvec2">      0.00000000       0.08333333       0.00000000 </v>
   <v name="genvec3">      0.00000000       0.00000000       0.08333333 </v>
   <v name="shift">      0.00000000       0.00000000       0.00000000 </v>
  </generation>
  <varray name="kpointlist" >
   <v>       0.00000000       0.00000000       0.00000000 </v>
   <v>       0.08333333       0.00000000       0.00000000 </v>
   <v>       0.16666667       0.00000000       0.00000000 </v>
   <v>       0.25000000       0.00000000       0.00000000 </v>
   <v>       0.33333333       0.00000000       0.00000000 </v>
   <v>       0.41666667       0.00000000       0.00000000 </v>
   <v>       0.50000000       0.00000000       0.00000000 </v>
   <v>       0.08333333       0.08333333       0.00000000 </v>
   <v>       0.16666667       0.08333333       0.00000000 </v>
   <v>       0.25000000       0.08333333       0.00000000 </v>
   <v>       0.33333333       0.08333333       0.00000000 </v>
   <v>       0.41666667       0.08333333       0.00000000 </v>
   <v>       0.50000000       0.08333333       0.00000000 </v>
   <v>      -0.41666667       0.08333333       0.00000000 </v>
   <v>      -0.33333333       0.08333333       0.00000000 </v>
   <v>      -0.25000000       0.08333333       0.00000000 </v>
   <v>      -0.16666667       0.08333333       0.00000000 </v>
   <v>      -0.08333333       0.08333333       0.00000000 </v>
   <v>       0.16666667       0.16666667       0.00000000 </v>
   <v>       0.25000000       0.16666667       0.00000000 </v>
   <v>       0.33333333       0.16666667       0.00000000 </v>
   <v>       0.41666667       0.16666667       0.00000000 </v>
   <v>       0.50000000       0.16666667       0.00000000 </v>
   <v>      -0.41666667       0.16666667       0.00000000 </v>
   <v>      -0.33333333       0.16666667       0.00000000 </v>
   <v>      -0.25000000       0.16666667       0.00000000 </v>
   <v>      -0.16666667       0.16666667       0.00000000 </v>
   <v>       0.25000000       0.25000000       0.00000000 </v>
   <v>       0.33333333       0.25000000       0.00000000 </v>
   <v>       0.41666667       0.25000000       0.00000000 </v>
   <v>       0.50000000       0.25000000       0.00000000 </v>
   <v>      -0.41666667       0.25000000       0.00000000 </v>
   <v>      -0.33333333       0.25000000       0.00000000 </v>
   <v>      -0.25000000       0.25000000       0.00000000 </v>
   <v>       0.33333333       0.33333333       0.00000000 </v>
   <v>       0.41666667       0.33333333       0.00000000 </v>
   <v>       0.50000000       0.33333333       0.00000000 </v>
   <v>      -0.41666667       0.33333333       0.00000000 </v>
   <v>      -0.33333333       0.33333333       0.00000000 </v>
   <v>       0.41666667       0.41666667       0.00000000 </v>
   <v>       0.50000000       0.41666667       0.00000000 </v>
   <v>      -0.41666667       0.41666667       0.00000000 </v>
   <v>       0.50000000       0.50000000       0.00000000 </v>
   <v>       0.25000000       0.16666667       0.08333333 </v>
   <v>       0.33333333       0.16666667       0.08333333 </v>
   <v>       0.41666667       0.16666667       0.08333333 </v>
   <v>       0.50000000       0.16666667       0.08333333 </v>
   <v>      -0.41666667       0.16666667       0.08333333 </v>
   <v>       0.33333333       0.25000000       0.08333333 </v>
   <v>       0.41666667       0.25000000       0.08333333 </v>
   <v>       0.50000000       0.25000000       0.08333333 </v>
   <v>      -0.41666667       0.25000000       0.08333333 </v>
   <v>      -0.33333333       0.25000000       0.08333333 </v>
   <v>      -0.25000000       0.25000000       0.08333333 </v>
   <v>      -0.16666667       0.25000000       0.08333333 </v>
   <v>       0.41666667       0.33333333       0.08333333 </v>
   <v>       0.50000000       0.33333333       0.08333333 </v>
   <v>      -0.41666667       0.33333333       0.08333333 </v>
   <v>      -0.33333333       0.33333333       0.08333333 </v>
   <v>      -0.25000000       0.33333333       0.08333333 </v>
   <v>       0.50000000       0.41666667       0.08333333 </v>
   <v>      -0.41666667       0.41666667       0.08333333 </v>
   <v>      -0.33333333       0.41666667       0.08333333 </v>
   <v>      -0.41666667       0.50000000       0.08333333 </v>
   <v>       0.50000000       0.33333333       0.16666667 </v>
   <v>      -0.41666667       0.33333333       0.16666667 </v>
   <v>      -0.33333333       0.33333333       0.16666667 </v>
   <v>      -0.41666667       0.41666667       0.16666667 </v>
   <v>      -0.33333333       0.41666667       0.16666667 </v>
   <v>      -0.25000000       0.41666667       0.16666667 </v>
   <v>      -0.33333333       0.50000000       0.16666667 </v>
   <v>      -0.25000000       0.50000000       0.25000000 </v>
  </varray>
  <varray name="weights" >
   <v>       0.00057870 </v>
   <v>       0.00462963 </v>
   <v>       0.00462963 </v>
   <v>       0.00462963 </v>
   <v>       0.00462963 </v>
   <v>       0.00462963 </v>
   <v>       0.00231481 </v>
   <v>       0.00347222 </v>
   <v>       0.01388889 </v>
   <v>       0.01388889 </v>
   <v>       0.01388889 </v>
   <v>       0.01388889 </v>
   <v>       0.01388889 </v>
   <v>       0.01388889 </v>
   <v>       0.01388889 </v>
   <v>       0.01388889 </v>
   <v>       0.01388889 </v>
   <v>       0.00694444 </v>
   <v>       0.00347222 </v>
   <v>       0.01388889 </v>
   <v>       0.01388889 </v>
   <v>       0.01388889 </v>
   <v>       0.01388889 </v>
   <v>       0.01388889 </v>
   <v>       0.01388889 </v>
   <v>       0.01388889 </v>
   <v>       0.00694444 </v>
   <v>       0.00347222 </v>
   <v>       0.01388889 </v>
   <v>       0.01388889 </v>
   <v>       0.01388889 </v>
   <v>       0.01388889 </v>
   <v>       0.01388889 </v>
   <v>       0.00694444 </v>
   <v>       0.00347222 </v>
   <v>       0.01388889 </v>
   <v>       0.01388889 </v>
   <v>       0.01388889 </v>
   <v>       0.00694444 </v>
   <v>       0.00347222 </v>
   <v>       0.01388889 </v>
   <v>       0.00694444 </v>
   <v>       0.00173611 </v>
   <v>       0.01388889 </v>
   <v>       0.02777778 </v>
   <v>       0.02777778 </v>
   <v>       0.02777778 </v>
   <v>       0.01388889 </v>
   <v>       0.01388889 </v>
   <v>       0.02777778 </v>
   <v>       0.02777778 </v>
   <v>       0.02777778 </v>
   <v>       0.02777778 </v>
   <v>       0.02777778 </v>
   <v>       0.01388889 </v>
   <v>       0.01388889 </v>
   <v>       0.02777778 </v>
   <v>       0.02777778 </v>
   <v>       0.02777778 </v>
   <v>       0.01388889 </v>
   <v>       0.01388889 </v>
   <v>       0.02777778 </v>
   <v>       0.01388889 </v>
   <v>       0.00694444 </v>
   <v>       0.01388889 </v>
   <v>       0.02777778 </v>
   <v>       0.01388889 </v>
   <v>       0.01388889 </v>
   <v>       0.02777778 </v>
   <v>       0.01388889 </v>
   <v>       0.00694444 </v>
   <v>       0.00347222 </v>
  </varray>
  <varray name="tetrahedronlist"  type="int" >
   <v type="int" >       24        1        2        2        8 </v>
   <v type="int" >       48        2        8        9       18 </v>
   <v type="int" >       48        2        3        9       18 </v>
   <v type="int" >       24        2        2        8       18 </v>
   <v type="int" >       48        3        9       10       17 </v>
   <v type="int" >       48        3        4       10       17 </v>
   <v type="int" >       48        3        9       17       18 </v>
   <v type="int" >       48        4       10       11       16 </v>
   <v type="int" >       48        4        5       11       16 </v>
   <v type="int" >       48        4       10       16       17 </v>
   <v type="int" >       48        5       11       12       15 </v>
   <v type="int" >       48        5        6       12       15 </v>
   <v type="int" >       48        5       11       15       16 </v>
   <v type="int" >       48        6       12       13       14 </v>
   <v type="int" >       48        6        7       13       14 </v>
   <v type="int" >       48        6       12       14       15 </v>
   <v type="int" >       48        7       13       13       14 </v>
   <v type="int" >       24        8        9        9       19 </v>
   <v type="int" >       24        8        9        9       18 </v>
   <v type="int" >       48        9       19       20       44 </v>
   <v type="int" >       48        9       10       20       44 </v>
   <v type="int" >       48        9       10       17       44 </v>
   <v type="int" >       24        9        9       19       44 </v>
   <v type="int" >       24        9        9       18       44 </v>
   <v type="int" >       48        9       17       18       44 </v>
   <v type="int" >       48       10       20       21       45 </v>
   <v type="int" >       48       10       11       21       45 </v>
   <v type="int" >       48       10       11       16       45 </v>
   <v type="int" >       48       10       20       44       45 </v>
   <v type="int" >       48       10       17       44       45 </v>
   <v type="int" >       48       10       16       17       45 </v>
   <v type="int" >       48       11       21       22       46 </v>
   <v type="int" >       48       11       12       22       46 </v>
   <v type="int" >       48       11       12       15       46 </v>
   <v type="int" >       48       11       21       45       46 </v>
   <v type="int" >       48       11       16       45       46 </v>
   <v type="int" >       48       11       15       16       46 </v>
   <v type="int" >       48       12       22       23       47 </v>
   <v type="int" >       48       12       13       23       47 </v>
   <v type="int" >       48       12       13       14       47 </v>
   <v type="int" >       48       12       22       46       47 </v>
   <v type="int" >       48       12       15       46       47 </v>
   <v type="int" >       48       12       14       15       47 </v>
   <v type="int" >       48       13       23       24       48 </v>
   <v type="int" >       48       13       14       24       48 </v>
   <v type="int" >       48       13       13       14       48 </v>
   <v type="int" >       48       13       23       47       48 </v>
   <v type="int" >       48       13       14       47       48 </v>
   <v type="int" >       48       14       24       25       47 </v>
   <v type="int" >       48       14       15       25       47 </v>
   <v type="int" >       48       14       24       47       48 </v>
   <v type="int" >       48       15       25       26       46 </v>
   <v type="int" >       48       15       16       26       46 </v>
   <v type="int" >       48       15       25       46       47 </v>
   <v type="int" >       48       16       26       27       45 </v>
   <v type="int" >       48       16       17       27       45 </v>
   <v type="int" >       48       16       26       45       46 </v>
   <v type="int" >       24       17       17       27       44 </v>
   <v type="int" >       24       17       17       18       44 </v>
   <v type="int" >       48       17       27       44       45 </v>
   <v type="int" >       24       19       20       20       28 </v>
   <v type="int" >       24       19       20       20       44 </v>
   <v type="int" >       48       20       28       29       49 </v>
   <v type="int" >       48       20       21       29       49 </v>
   <v type="int" >       48       20       21       45       49 </v>
   <v type="int" >       24       20       20       28       49 </v>
   <v type="int" >       24       20       20       44       49 </v>
   <v type="int" >       48       20       44       45       49 </v>
   <v type="int" >       48       21       29       30       50 </v>
   <v type="int" >       48       21       22       30       50 </v>
   <v type="int" >       48       21       22       46       50 </v>
   <v type="int" >       48       21       29       49       50 </v>
   <v type="int" >       48       21       45       49       50 </v>
   <v type="int" >       48       21       45       46       50 </v>
   <v type="int" >       48       22       30       31       51 </v>
   <v type="int" >       48       22       23       31       51 </v>
   <v type="int" >       48       22       23       47       51 </v>
   <v type="int" >       48       22       30       50       51 </v>
   <v type="int" >       48       22       46       50       51 </v>
   <v type="int" >       48       22       46       47       51 </v>
   <v type="int" >       48       23       31       32       52 </v>
   <v type="int" >       48       23       24       32       52 </v>
   <v type="int" >       48       23       24       48       52 </v>
   <v type="int" >       48       23       31       51       52 </v>
   <v type="int" >       48       23       47       51       52 </v>
   <v type="int" >       48       23       47       48       52 </v>
   <v type="int" >       48       24       32       33       53 </v>
   <v type="int" >       48       24       25       33       53 </v>
   <v type="int" >       48       24       25       47       53 </v>
   <v type="int" >       48       24       32       52       53 </v>
   <v type="int" >       48       24       48       52       53 </v>
   <v type="int" >       48       24       47       48       53 </v>
   <v type="int" >       48       25       33       34       54 </v>
   <v type="int" >       48       25       26       34       54 </v>
   <v type="int" >       48       25       26       46       54 </v>
   <v type="int" >       48       25       33       53       54 </v>
   <v type="int" >       48       25       47       53       54 </v>
   <v type="int" >       48       25       46       47       54 </v>
   <v type="int" >       24       26       26       34       55 </v>
   <v type="int" >       24       26       26       27       55 </v>
   <v type="int" >       48       26       27       45       55 </v>
   <v type="int" >       48       26       34       54       55 </v>
   <v type="int" >       48       26       46       54       55 </v>
   <v type="int" >       48       26       45       46       55 </v>
   <v type="int" >       24       27       45       45       55 </v>
   <v type="int" >       24       27       44       45       45 </v>
   <v type="int" >       24       28       29       29       35 </v>
   <v type="int" >       24       28       29       29       49 </v>
   <v type="int" >       48       29       35       36       56 </v>
   <v type="int" >       48       29       30       36       56 </v>
   <v type="int" >       48       29       30       50       56 </v>
   <v type="int" >       24       29       29       35       56 </v>
   <v type="int" >       24       29       29       49       56 </v>
   <v type="int" >       48       29       49       50       56 </v>
   <v type="int" >       48       30       36       37       57 </v>
   <v type="int" >       48       30       31       37       57 </v>
   <v type="int" >       48       30       31       51       57 </v>
   <v type="int" >       48       30       36       56       57 </v>
   <v type="int" >       48       30       50       56       57 </v>
   <v type="int" >       48       30       50       51       57 </v>
   <v type="int" >       48       31       37       38       58 </v>
   <v type="int" >       48       31       32       38       58 </v>
   <v type="int" >       48       31       32       52       58 </v>
   <v type="int" >       48       31       37       57       58 </v>
   <v type="int" >       48       31       51       57       58 </v>
   <v type="int" >       48       31       51       52       58 </v>
   <v type="int" >       48       32       38       39       59 </v>
   <v type="int" >       48       32       33       39       59 </v>
   <v type="int" >       48       32       33       53       59 </v>
   <v type="int" >       48       32       38       58       59 </v>
   <v type="int" >       48       32       52       58       59 </v>
   <v type="int" >       48       32       52       53       59 </v>
   <v type="int" >       24       33       33       39       60 </v>
   <v type="int" >       24       33       33       34       60 </v>
   <v type="int" >       48       33       34       54       60 </v>
   <v type="int" >       48       33       39       59       60 </v>
   <v type="int" >       48       33       53       59       60 </v>
   <v type="int" >       48       33       53       54       60 </v>
   <v type="int" >       24       34       54       54       60 </v>
   <v type="int" >       24       34       54       54       55 </v>
   <v type="int" >       24       35       36       36       40 </v>
   <v type="int" >       24       35       36       36       56 </v>
   <v type="int" >       48       36       40       41       61 </v>
   <v type="int" >       48       36       37       41       61 </v>
   <v type="int" >       48       36       37       57       61 </v>
   <v type="int" >       24       36       36       40       61 </v>
   <v type="int" >       24       36       36       56       61 </v>
   <v type="int" >       48       36       56       57       61 </v>
   <v type="int" >       48       37       41       42       62 </v>
   <v type="int" >       48       37       38       42       62 </v>
   <v type="int" >       48       37       38       58       62 </v>
   <v type="int" >       48       37       41       61       62 </v>
   <v type="int" >       48       37       57       61       62 </v>
   <v type="int" >       48       37       57       58       62 </v>
   <v type="int" >       24       38       38       42       63 </v>
   <v type="int" >       24       38       38       39       63 </v>
   <v type="int" >       48       38       39       59       63 </v>
   <v type="int" >       48       38       42       62       63 </v>
   <v type="int" >       48       38       58       62       63 </v>
   <v type="int" >       48       38       58       59       63 </v>
   <v type="int" >       24       39       59       59       63 </v>
   <v type="int" >       24       39       59       59       60 </v>
   <v type="int" >       24       40       41       41       43 </v>
   <v type="int" >       24       40       41       41       61 </v>
   <v type="int" >       48       41       41       43       64 </v>
   <v type="int" >       24       41       41       42       64 </v>
   <v type="int" >       48       41       42       62       64 </v>
   <v type="int" >       24       41       41       61       64 </v>
   <v type="int" >       48       41       61       62       64 </v>
   <v type="int" >       24       42       62       62       64 </v>
   <v type="int" >       24       42       62       62       63 </v>
   <v type="int" >       24       44       45       45       49 </v>
   <v type="int" >       48       45       49       50       55 </v>
   <v type="int" >       48       45       46       50       55 </v>
   <v type="int" >       24       45       45       49       55 </v>
   <v type="int" >       48       46       50       51       54 </v>
   <v type="int" >       48       46       47       51       54 </v>
   <v type="int" >       48       46       50       54       55 </v>
   <v type="int" >       48       47       51       52       53 </v>
   <v type="int" >       48       47       48       52       53 </v>
   <v type="int" >       48       47       51       53       54 </v>
   <v type="int" >       48       48       52       52       53 </v>
   <v type="int" >       24       49       50       50       56 </v>
   <v type="int" >       24       49       50       50       55 </v>
   <v type="int" >       48       50       56       57       65 </v>
   <v type="int" >       48       50       51       57       65 </v>
   <v type="int" >       48       50       51       54       65 </v>
   <v type="int" >       24       50       50       56       65 </v>
   <v type="int" >       24       50       50       55       65 </v>
   <v type="int" >       48       50       54       55       65 </v>
   <v type="int" >       48       51       57       58       66 </v>
   <v type="int" >       48       51       52       58       66 </v>
   <v type="int" >       48       51       52       53       66 </v>
   <v type="int" >       48       51       57       65       66 </v>
   <v type="int" >       48       51       54       65       66 </v>
   <v type="int" >       48       51       53       54       66 </v>
   <v type="int" >       48       52       58       59       67 </v>
   <v type="int" >       48       52       53       59       67 </v>
   <v type="int" >       48       52       52       53       67 </v>
   <v type="int" >       48       52       58       66       67 </v>
   <v type="int" >       48       52       53       66       67 </v>
   <v type="int" >       48       53       59       60       66 </v>
   <v type="int" >       48       53       54       60       66 </v>
   <v type="int" >       48       53       59       66       67 </v>
   <v type="int" >       24       54       54       60       65 </v>
   <v type="int" >       24       54       54       55       65 </v>
   <v type="int" >       48       54       60       65       66 </v>
   <v type="int" >       24       56       57       57       61 </v>
   <v type="int" >       24       56       57       57       65 </v>
   <v type="int" >       48       57       61       62       68 </v>
   <v type="int" >       48       57       58       62       68 </v>
   <v type="int" >       48       57       58       66       68 </v>
   <v type="int" >       24       57       57       61       68 </v>
   <v type="int" >       24       57       57       65       68 </v>
   <v type="int" >       48       57       65       66       68 </v>
   <v type="int" >       48       58       62       63       69 </v>
   <v type="int" >       48       58       59       63       69 </v>
   <v type="int" >       48       58       59       67       69 </v>
   <v type="int" >       48       58       62       68       69 </v>
   <v type="int" >       48       58       66       68       69 </v>
   <v type="int" >       48       58       66       67       69 </v>
   <v type="int" >       24       59       59       63       70 </v>
   <v type="int" >       24       59       59       60       70 </v>
   <v type="int" >       48       59       60       66       70 </v>
   <v type="int" >       48       59       63       69       70 </v>
   <v type="int" >       48       59       67       69       70 </v>
   <v type="int" >       48       59       66       67       70 </v>
   <v type="int" >       24       60       66       66       70 </v>
   <v type="int" >       24       60       65       66       66 </v>
   <v type="int" >       24       61       62       62       64 </v>
   <v type="int" >       24       61       62       62       68 </v>
   <v type="int" >       48       62       62       64       71 </v>
   <v type="int" >       24       62       62       63       71 </v>
   <v type="int" >       48       62       63       69       71 </v>
   <v type="int" >       24       62       62       68       71 </v>
   <v type="int" >       48       62       68       69       71 </v>
   <v type="int" >       24       63       69       69       71 </v>
   <v type="int" >       24       63       69       69       70 </v>
   <v type="int" >       24       65       66       66       68 </v>
   <v type="int" >       48       66       68       69       70 </v>
   <v type="int" >       48       66       67       69       70 </v>
   <v type="int" >       24       66       66       68       70 </v>
   <v type="int" >       48       67       69       69       70 </v>
   <v type="int" >       24       68       69       69       71 </v>
   <v type="int" >       24       68       69       69       70 </v>
   <v type="int" >       48       69       69       71       72 </v>
   <v type="int" >       96       69       69       70       72 </v>
  </varray>
  <i name="volumeweight">      0.00009645 </i>
 </kpoints>
 <parameters>
  <separator name="general" >
   <i type="string" name="SYSTEM">unknown system</i>
   <i type="logical" name="LCOMPAT"> F  </i>
  </separator>
  <separator name="electronic" >
   <i type="string" name="PREC">accura</i>
   <i name="ENMAX">    520.00000000</i>
   <i name="ENAUG">    628.94500000</i>
   <i name="EDIFF">      0.00015000</i>
   <i type="int" name="IALGO">    68</i>
   <i type="int" name="IWAVPR">    11</i>
   <i type="int" name="NBANDS">    24</i>
   <i name="NELECT">     12.00000000</i>
   <i type="int" name="TURBO">     0</i>
   <i type="int" name="IRESTART">     0</i>
   <i type="int" name="NREBOOT">     0</i>
   <i type="int" name="NMIN">     0</i>
   <i name="EREF">      0.00000000</i>
   <separator name="electronic smearing" >
    <i type="int" name="ISMEAR">    -5</i>
    <i name="SIGMA">      0.05000000</i>
    <i name="KSPACING">      0.50000000</i>
    <i type="logical" name="KGAMMA"> T  </i>
   </separator>
   <separator name="electronic projectors" >
    <i type="logical" name="LREAL"> T  </i>
    <v name="ROPT">     -0.00025000     -0.00025000</v>
    <i type="int" name="LMAXPAW">  -100</i>
    <i type="int" name="LMAXMIX">     2</i>
    <i type="logical" name="NLSPLINE"> F  </i>
   </separator>
   <separator name="electronic startup" >
    <i type="int" name="ISTART">     0</i>
    <i type="int" name="ICHARG">     2</i>
    <i type="int" name="INIWAV">     1</i>
   </separator>
   <separator name="electronic spin" >
    <i type="int" name="ISPIN">     2</i>
    <i type="logical" name="LNONCOLLINEAR"> F  </i>
    <v name="MAGMOM">      0.00000000      0.00000000      0.00000000</v>
    <i name="NUPDOWN">     -1.00000000</i>
    <i type="logical" name="LSORBIT"> F  </i>
    <v name="SAXIS">      0.00000000      0.00000000      1.00000000</v>
    <i type="logical" name="LSPIRAL"> F  </i>
    <v name="QSPIRAL">      0.00000000      0.00000000      0.00000000</v>
    <i type="logical" name="LZEROZ"> F  </i>
   </separator>
   <separator name="electronic exchange-correlation" >
    <i type="logical" name="LASPH"> T  </i>
    <i type="logical" name="LMETAGGA"> F  </i>
   </separator>
   <separator name="electronic convergence" >
    <i type="int" name="NELM">   100</i>
    <i type="int" name="NELMDL">    -5</i>
    <i type="int" name="NELMIN">     2</i>
    <i name="ENINI">    520.00000000</i>
    <separator name="electronic convergence detail" >
     <i type="logical" name="LDIAG"> T  </i>
     <i type="logical" name="LSUBROT"> F  </i>
     <i name="WEIMIN">      0.00100000</i>
     <i name="EBREAK">      0.00000156</i>
     <i name="DEPER">      0.30000000</i>
     <i type="int" name="NRMM">     4</i>
     <i name="TIME">      0.40000000</i>
    </separator>
   </separator>
   <separator name="electronic mixer" >
    <i name="AMIX">      0.40000000</i>
    <i name="BMIX">      1.00000000</i>
    <i name="AMIN">      0.10000000</i>
    <i name="AMIX_MAG">      1.60000000</i>
    <i name="BMIX_MAG">      1.00000000</i>
    <separator name="electronic mixer details" >
     <i type="int" name="IMIX">     4</i>
     <i type="logical" name="MIXFIRST"> F  </i>
     <i type="int" name="MAXMIX">   -45</i>
     <i name="WC">    100.00000000</i>
     <i type="int" name="INIMIX">     1</i>
     <i type="int" name="MIXPRE">     1</i>
     <i type="int" name="MREMOVE">     5</i>
    </separator>
   </separator>
   <separator name="electronic dipolcorrection" >
    <i type="logical" name="LDIPOL"> F  </i>
    <i type="logical" name="LMONO"> F  </i>
    <i type="int" name="IDIPOL">     0</i>
    <i name="EPSILON">      1.00000000</i>
    <v name="DIPOL">   -100.00000000   -100.00000000   -100.00000000</v>
    <i name="EFIELD">      0.00000000</i>
   </separator>
  </separator>
  <separator name="grids" >
   <i type="int" name="NGX">    28</i>
   <i type="int" name="NGY">    28</i>
   <i type="int" name="NGZ">    28</i>
   <i type="int" name="NGXF">    56</i>
   <i type="int" name="NGYF">    56</i>
   <i type="int" name="NGZF">    56</i>
   <i type="logical" name="ADDGRID"> F  </i>
  </separator>
  <separator name="ionic" >
   <i type="int" name="NSW">    99</i>
   <i type="int" name="IBRION">     2</i>
   <i type="int" name="MDALGO">     0</i>
   <i type="int" name="ISIF">     3</i>
   <i name="PSTRESS">      0.00000000</i>
   <i name="EDIFFG">      0.00150000</i>
   <i type="int" name="NFREE">     1</i>
   <i name="POTIM">      0.50000000</i>
   <i name="SMASS">     -3.00000000</i>
   <i name="SCALEE">      1.00000000</i>
  </separator>
  <separator name="ionic md" >
   <i name="TEBEG">      0.00010000</i>
   <i name="TEEND">      0.00010000</i>
   <i type="int" name="NBLOCK">     1</i>
   <i type="int" name="KBLOCK">    99</i>
   <i type="int" name="NPACO">   256</i>
   <i name="APACO">     16.00000000</i>
  </separator>
  <separator name="symmetry" >
   <i type="int" name="ISYM">     2</i>
   <i name="SYMPREC">      0.00001000</i>
  </separator>
  <separator name="dos" >
   <i type="int" name="LORBIT">    11</i>
   <v name="RWIGS">     -1.00000000     -1.00000000</v>
   <i type="int" name="NEDOS">   301</i>
   <i name="EMIN">     10.00000000</i>
   <i name="EMAX">    -10.00000000</i>
   <i name="EFERMI">      0.00000000</i>
  </separator>
  <separator name="writing" >
   <i type="int" name="NWRITE">     2</i>
   <i type="logical" name="LWAVE"> F  </i>
   <i type="logical" name="LDOWNSAMPLE"> F  </i>
   <i type="logical" name="LCHARG"> T  </i>
   <i type="logical" name="LPARD"> F  </i>
   <i type="logical" name="LVTOT"> F  </i>
   <i type="logical" name="LVHAR"> F  </i>
   <i type="logical" name="LELF"> F  </i>
   <i type="logical" name="LOPTICS"> F  </i>
   <v name="STM">      0.00000000      0.00000000      0.00000000      0.00000000      0.00000000      0.00000000      0.00000000</v>
  </separator>
  <separator name="performance" >
   <i type="int" name="NPAR">    24</i>
   <i type="int" name="NSIM">     4</i>
   <i type="int" name="NBLK">    -1</i>
   <i type="logical" name="LPLANE"> T  </i>
   <i type="logical" name="LSCALAPACK"> T  </i>
   <i type="logical" name="LSCAAWARE"> F  </i>
   <i type="logical" name="LSCALU"> F  </i>
   <i type="logical" name="LASYNC"> F  </i>
   <i type="logical" name="LORBITALREAL"> F  </i>
  </separator>
  <separator name="miscellaneous" >
   <i type="int" name="IDIOT">     3</i>
   <i type="int" name="ISPECIAL">     0</i>
   <i type="logical" name="LMUSIC"> F  </i>
   <v name="POMASS">      7.01000000     16.00000000</v>
   <v name="DARWINR">      0.00000000      0.00000000</v>
   <v name="DARWINV">      1.00000000      1.00000000</v>
   <i type="logical" name="LCORR"> T  </i>
  </separator>
  <i type="logical" name="GGA_COMPAT"> T  </i>
  <i type="logical" name="LBERRY"> F  </i>
  <i type="int" name="ICORELEVEL">     0</i>
  <i type="logical" name="LDAU"> F  </i>
  <i type="int" name="I_CONSTRAINED_M">     0</i>
  <separator name="electronic exchange-correlation" >
   <i type="string" name="GGA">--</i>
   <i type="int" name="VOSKOWN">     0</i>
   <i type="logical" name="LHFCALC"> F  </i>
   <i type="string" name="PRECFOCK"></i>
   <i type="logical" name="LSYMGRAD"> F  </i>
   <i type="logical" name="LHFONE"> F  </i>
   <i type="logical" name="LRHFCALC"> F  </i>
   <i type="logical" name="LTHOMAS"> F  </i>
   <i type="logical" name="LMODELHF"> F  </i>
   <i name="ENCUT4O">     -1.00000000</i>
   <i type="int" name="EXXOEP">     0</i>
   <i type="int" name="FOURORBIT">     0</i>
   <i name="AEXX">      0.00000000</i>
   <i name="HFALPHA">      0.00000000</i>
   <i name="MCALPHA">      0.00000000</i>
   <i name="ALDAX">      1.00000000</i>
   <i name="AGGAX">      1.00000000</i>
   <i name="ALDAC">      1.00000000</i>
   <i name="AGGAC">      1.00000000</i>
   <i type="int" name="NKREDX">     1</i>
   <i type="int" name="NKREDY">     1</i>
   <i type="int" name="NKREDZ">     1</i>
   <i type="logical" name="SHIFTRED"> F  </i>
   <i type="logical" name="ODDONLY"> F  </i>
   <i type="logical" name="EVENONLY"> F  </i>
   <i type="int" name="LMAXFOCK">     0</i>
   <i type="int" name="NMAXFOCKAE">     0</i>
   <i type="logical" name="LFOCKAEDFT"> F  </i>
   <i name="HFSCREEN">      0.00000000</i>
   <i name="HFSCREENC">      0.00000000</i>
   <i type="int" name="NBANDSGWLOW">     0</i>
  </separator>
  <separator name="vdW DFT" >
   <i type="logical" name="LUSE_VDW"> F  </i>
   <i name="Zab_VDW">     -0.84910000</i>
   <i name="PARAM1">      0.12340000</i>
   <i name="PARAM2">      1.00000000</i>
   <i name="PARAM3">      0.00000000</i>
  </separator>
  <separator name="model GW" >
   <i type="int" name="MODEL_GW">     0</i>
   <i name="MODEL_EPS0">      5.05596374</i>
   <i name="MODEL_ALPHA">      1.00000000</i>
  </separator>
  <separator name="linear response parameters" >
   <i type="logical" name="LEPSILON"> F  </i>
   <i type="logical" name="LRPA"> F  </i>
   <i type="logical" name="LNABLA"> F  </i>
   <i type="logical" name="LVEL"> F  </i>
   <i type="int" name="KINTER">     0</i>
   <i name="CSHIFT">      0.10000000</i>
   <i name="OMEGAMAX">     -1.00000000</i>
   <i name="DEG_THRESHOLD">      0.00200000</i>
   <i name="RTIME">     -0.10000000</i>
   <i name="WPLASMAI">      0.00000000</i>
   <v name="DFIELD">      0.00000000      0.00000000      0.00000000</v>
   <v name="WPLASMA">      0.00000000      0.00000000      0.00000000      0.00000000      0.00000000      0.00000000      0.00000000      0.00000000      0.00000000</v>
  </separator>
  <separator name="orbital magnetization" >
   <i type="logical" name="NUCIND"> F  </i>
   <v name="MAGPOS">      0.00000000      0.00000000      0.00000000</v>
   <i type="logical" name="LNICSALL"> T  </i>
   <i type="logical" name="ORBITALMAG"> F  </i>
   <i type="logical" name="LMAGBLOCH"> F  </i>
   <i type="logical" name="LCHIMAG"> F  </i>
   <i type="logical" name="LGAUGE"> T  </i>
   <i type="int" name="MAGATOM">     0</i>
   <v name="MAGDIPOL">      0.00000000      0.00000000      0.00000000</v>
   <v name="AVECCONST">      0.00000000      0.00000000      0.00000000</v>
  </separator>
  <separator name="response functions" >
   <i type="logical" name="LADDER"> F  </i>
   <i type="logical" name="LRPAFORCE"> F  </i>
   <i type="logical" name="LFXC"> F  </i>
   <i type="logical" name="LHARTREE"> T  </i>
   <i type="int" name="IBSE">     0</i>
   <v type="int" name="KPOINT">    -1     0     0     0</v>
   <i type="logical" name="LTCTE"> F  </i>
   <i type="logical" name="LTETE"> F  </i>
   <i type="logical" name="LTRIPLET"> F  </i>
   <i type="logical" name="LFXCEPS"> F  </i>
   <i type="logical" name="LFXHEG"> F  </i>
   <i type="int" name="NATURALO">     2</i>
   <i type="logical" name="L2ORDER"> F  </i>
   <i type="logical" name="LMP2LT"> F  </i>
   <i type="logical" name="LUSEW"> F  </i>
   <i name="ENCUTGW">     -2.00000000</i>
   <i name="ENCUTGWSOFT">     -2.00000000</i>
   <i name="ENCUTLF">     -1.00000000</i>
   <i type="int" name="LMAXMP2">    -1</i>
   <i name="SCISSOR">      0.00000000</i>
   <i type="int" name="NOMEGA">     0</i>
   <i type="int" name="NOMEGAR">     0</i>
   <i type="int" name="NBANDSGW">    -1</i>
   <i type="int" name="NBANDSO">    -1</i>
   <i type="int" name="NBANDSV">    -1</i>
   <i type="int" name="NELM">   100</i>
   <i type="int" name="NELMHF">     1</i>
   <i type="int" name="DIM">     3</i>
   <i type="int" name="ANTIRES">     0</i>
   <i name="OMEGAMAX">    -30.00000000</i>
   <i name="OMEGAMIN">    -30.00000000</i>
   <i name="OMEGATL">   -200.00000000</i>
   <i type="int" name="OMEGAGRID">   140</i>
   <i name="CSHIFT">     -0.10000000</i>
   <i type="logical" name="SELFENERGY"> F  </i>
   <i type="logical" name="LSPECTRAL"> F  </i>
   <i type="logical" name="LSPECTRALGW"> F  </i>
   <i type="logical" name="LSINGLES"> F  </i>
   <i type="logical" name="LFERMIGW"> F  </i>
   <i type="logical" name="ODDONLYGW"> F  </i>
   <i type="logical" name="EVENONLYGW"> F  </i>
   <i type="int" name="NKREDLFX">     1</i>
   <i type="int" name="NKREDLFY">     1</i>
   <i type="int" name="NKREDLFZ">     1</i>
   <i type="int" name="MAXMEM">  2800</i>
   <i type="int" name="TELESCOPE">     0</i>
   <i type="int" name="TAUPAR">     1</i>
   <i type="int" name="OMEGAPAR">    -1</i>
   <i name="LAMBDA">      1.00000000</i>
  </separator>
  <separator name="External order field" >
   <i name="OFIELD_KAPPA">      0.00000000</i>
   <v name="OFIELD_K">      0.00000000      0.00000000      0.00000000</v>
   <i name="OFIELD_Q6_NEAR">      0.00000000</i>
   <i name="OFIELD_Q6_FAR">      0.00000000</i>
   <i name="OFIELD_A">      0.00000000</i>
  </separator>
 </parameters>
 <atominfo>
  <atoms>       3 </atoms>
  <types>       2 </types>
  <array name="atoms" >
   <dimension dim="1">ion</dimension>
   <field type="string">element</field>
   <field type="int">atomtype</field>
   <set>
    <rc><c>Li</c><c>   1</c></rc>
    <rc><c>Li</c><c>   1</c></rc>
    <rc><c>O </c><c>   2</c></rc>
   </set>
  </array>
  <array name="atomtypes" >
   <dimension dim="1">type</dimension>
   <field type="int">atomspertype</field>
   <field type="string">element</field>
   <field>mass</field>
   <field>valence</field>
   <field type="string">pseudopotential</field>
   <set>
    <rc><c>   2</c><c>Li</c><c>      7.01000000</c><c>      3.00000000</c><c>  PAW_PBE Li_sv 10Sep2004               </c></rc>
    <rc><c>   1</c><c>O </c><c>     16.00000000</c><c>      6.00000000</c><c>  PAW_PBE O 08Apr2002                   </c></rc>
   </set>
  </array>
 </atominfo>
 <structure name="initialpos" >
  <crystal>
   <varray name="basis" >
    <v>       0.00000000       2.32942100       2.32942100 </v>
    <v>       2.32942100       0.00000000       2.32942100 </v>
    <v>       2.32942100       2.32942100       0.00000000 </v>
   </varray>
   <i name="volume">     25.27981869 </i>
   <varray name="rec_basis" >
    <v>      -0.21464561       0.21464561       0.21464561 </v>
    <v>       0.21464561      -0.21464561       0.21464561 </v>
    <v>       0.21464561       0.21464561      -0.21464561 </v>
   </varray>
  </crystal>
  <varray name="positions" >
   <v>       0.75000000       0.75000000       0.75000000 </v>
   <v>       0.25000000       0.25000000       0.25000000 </v>
   <v>       0.00000000       0.00000000       0.00000000 </v>
  </varray>
 </structure>
 <calculation>
  <scstep>
   <time name="dav">    2.50    7.54</time>
   <time name="total">    2.77    8.34</time>
   <energy>
    <i name="alphaZ">     18.27813350 </i>
    <i name="ewald">   -502.16616577 </i>
    <i name="hartreedc">   -177.47872663 </i>
    <i name="XCdc">     52.95917533 </i>
    <i name="pawpsdc">    506.07272715 </i>
    <i name="pawaedc">   -538.68227925 </i>
    <i name="eentropy">      0.00000000 </i>
    <i name="bandstr">   -194.10986703 </i>
    <i name="atom">    837.90368042 </i>
    <i name="e_fr_energy">      2.77667771 </i>
    <i name="e_wo_entrp">      2.77667771 </i>
    <i name="e_0_energy">      2.77667771 </i>
   </energy>
  </scstep>
  <scstep>
   <time name="dav">    3.51   10.57</time>
   <time name="total">    3.51   10.58</time>
   <energy>
    <i name="e_fr_energy">    -16.07594819 </i>
    <i name="e_wo_entrp">    -16.07594819 </i>
    <i name="e_0_energy">    -16.07594819 </i>
   </energy>
  </scstep>
  <scstep>
   <time name="dav">    2.19    6.60</time>
   <time name="total">    2.19    6.60</time>
   <energy>
    <i name="e_fr_energy">    -16.11971957 </i>
    <i name="e_wo_entrp">    -16.11971957 </i>
    <i name="e_0_energy">    -16.11971957 </i>
   </energy>
  </scstep>
  <scstep>
   <time name="dav">    4.42   13.33</time>
   <time name="total">    4.42   13.33</time>
   <energy>
    <i name="e_fr_energy">    -16.11980082 </i>
    <i name="e_wo_entrp">    -16.11980082 </i>
    <i name="e_0_energy">    -16.11980082 </i>
   </energy>
  </scstep>
  <scstep>
   <time name="dav">    2.67    8.04</time>
   <time name="total">    2.73    8.25</time>
   <energy>
    <i name="e_fr_energy">    -16.11980082 </i>
    <i name="e_wo_entrp">    -16.11980082 </i>
    <i name="e_0_energy">    -16.11980082 </i>
   </energy>
  </scstep>
  <scstep>
   <time name="diag">    2.41    7.26</time>
   <time name="diis">    0.53    1.58</time>
   <time name="orth">    0.22    0.65</time>
   <time name="total">    3.48   10.49</time>
   <energy>
    <i name="e_fr_energy">    -14.40697522 </i>
    <i name="e_wo_entrp">    -14.40697522 </i>
    <i name="e_0_energy">    -14.40697522 </i>
   </energy>
  </scstep>
  <scstep>
   <time name="diag">    2.18    6.56</time>
   <time name="diis">    0.51    1.53</time>
   <time name="orth">    0.11    0.33</time>
   <time name="total">    3.12    9.37</time>
   <energy>
    <i name="e_fr_energy">    -14.34896142 </i>
    <i name="e_wo_entrp">    -14.34896142 </i>
    <i name="e_0_energy">    -14.34896142 </i>
   </energy>
  </scstep>
  <scstep>
   <time name="diag">    2.47    7.45</time>
   <time name="diis">    0.51    1.52</time>
   <time name="orth">    0.08    0.24</time>
   <time name="total">    3.38   10.18</time>
   <energy>
    <i name="e_fr_energy">    -14.34677947 </i>
    <i name="e_wo_entrp">    -14.34677947 </i>
    <i name="e_0_energy">    -14.34677947 </i>
   </energy>
  </scstep>
  <scstep>
   <time name="diag">    1.18    3.54</time>
   <time name="diis">    0.49    1.48</time>
   <time name="orth">    0.07    0.21</time>
   <time name="total">    2.06    6.19</time>
   <energy>
    <i name="e_fr_energy">    -14.34517474 </i>
    <i name="e_wo_entrp">    -14.34517474 </i>
    <i name="e_0_energy">    -14.34517474 </i>
   </energy>
  </scstep>
  <scstep>
   <time name="diag">    1.13    3.41</time>
   <time name="diis">    0.49    1.48</time>
   <time name="orth">    0.15    0.45</time>
   <time name="total">    2.04    6.16</time>
   <energy>
    <i name="alphaZ">     18.27813350 </i>
    <i name="ewald">   -502.16616577 </i>
    <i name="hartreedc">   -194.81688090 </i>
    <i name="XCdc">     54.04964133 </i>
    <i name="pawpsdc">    634.92683362 </i>
    <i name="pawaedc">   -667.96048772 </i>
    <i name="eentropy">      0.00000000 </i>
    <i name="bandstr">   -194.55994528 </i>
    <i name="atom">    837.90368042 </i>
    <i name="e_fr_energy">    -14.34519081 </i>
    <i name="e_wo_entrp">    -14.34519081 </i>
    <i name="e_0_energy">    -14.34519081 </i>
   </energy>
  </scstep>
  <structure>
   <crystal>
    <varray name="basis" >
     <v>       0.00000000       2.32942100       2.32942100 </v>
     <v>       2.32942100       0.00000000       2.32942100 </v>
     <v>       2.32942100       2.32942100       0.00000000 </v>
    </varray>
    <i name="volume">     25.27981869 </i>
    <varray name="rec_basis" >
     <v>      -0.21464561       0.21464561       0.21464561 </v>
     <v>       0.21464561      -0.21464561       0.21464561 </v>
     <v>       0.21464561       0.21464561      -0.21464561 </v>
    </varray>
   </crystal>
   <varray name="positions" >
    <v>       0.75000000       0.75000000       0.75000000 </v>
    <v>       0.25000000       0.25000000       0.25000000 </v>
    <v>       0.00000000       0.00000000       0.00000000 </v>
   </varray>
  </structure>
  <varray name="forces" >
   <v>      -0.00000000       0.00000000      -0.00000000 </v>
   <v>      -0.00000000      -0.00000000       0.00000000 </v>
   <v>       0.00000000      -0.00000000       0.00000000 </v>
  </varray>
  <varray name="stress" >
   <v>     -16.18208567       0.00000000       0.00000000 </v>
   <v>       0.00000000     -16.18208567       0.00000000 </v>
   <v>      -0.00000000       0.00000000     -16.18208567 </v>
  </varray>
  <energy>
   <i name="e_fr_energy">    -14.34519081 </i>
   <i name="e_wo_entrp">    -14.34519081 </i>
   <i name="e_0_energy">      0.00000000 </i>
  </energy>
  <time name="totalsc">   32.39   97.56</time>
 </calculation>
 <calculation>
  <scstep>
   <time name="dav">    2.83    8.50</time>
   <time name="total">    3.14    9.46</time>
   <energy>
    <i name="alphaZ">     18.50513934 </i>
    <i name="ewald">   -504.23650777 </i>
    <i name="hartreedc">   -195.65001830 </i>
    <i name="XCdc">     54.26300733 </i>
    <i name="pawpsdc">    635.42388229 </i>
    <i name="pawaedc">   -668.45303861 </i>
    <i name="eentropy">      0.00000000 </i>
    <i name="bandstr">   -192.11432236 </i>
    <i name="atom">    837.90368042 </i>
    <i name="e_fr_energy">    -14.35817766 </i>
    <i name="e_wo_entrp">    -14.35817766 </i>
    <i name="e_0_energy">    -14.35817766 </i>
   </energy>
  </scstep>
  <scstep>
   <time name="diag">    1.13    3.39</time>
   <time name="diis">    0.50    1.50</time>
   <time name="orth">    0.15    0.45</time>
   <time name="total">    2.10    6.31</time>
   <energy>
    <i name="e_fr_energy">    -14.34851225 </i>
    <i name="e_wo_entrp">    -14.34851225 </i>
    <i name="e_0_energy">    -14.34851225 </i>
   </energy>
  </scstep>
  <scstep>
   <time name="diag">    1.74    5.22</time>
   <time name="diis">    0.55    1.66</time>
   <time name="orth">    1.42    4.27</time>
   <time name="total">    4.07   12.28</time>
   <energy>
    <i name="e_fr_energy">    -14.34762301 </i>
    <i name="e_wo_entrp">    -14.34762301 </i>
    <i name="e_0_energy">    -14.34762301 </i>
   </energy>
  </scstep>
  <scstep>
   <time name="diag">    7.77   23.40</time>
   <time name="diis">    0.56    1.68</time>
   <time name="orth">    0.10    0.31</time>
   <time name="total">    8.81   26.53</time>
   <energy>
    <i name="e_fr_energy">    -14.34747245 </i>
    <i name="e_wo_entrp">    -14.34747245 </i>
    <i name="e_0_energy">    -14.34747245 </i>
   </energy>
  </scstep>
  <scstep>
   <time name="diag">    2.53    7.61</time>
   <time name="diis">    0.44    1.32</time>
   <time name="orth">    0.07    0.21</time>
   <time name="total">    3.30    9.95</time>
   <energy>
    <i name="alphaZ">     18.50513934 </i>
    <i name="ewald">   -504.23650777 </i>
    <i name="hartreedc">   -193.83351690 </i>
    <i name="XCdc">     54.09807762 </i>
    <i name="pawpsdc">    637.72728171 </i>
    <i name="pawaedc">   -670.72317882 </i>
    <i name="eentropy">      0.00000000 </i>
    <i name="bandstr">   -193.78844733 </i>
    <i name="atom">    837.90368042 </i>
    <i name="e_fr_energy">    -14.34747174 </i>
    <i name="e_wo_entrp">    -14.34747174 </i>
    <i name="e_0_energy">    -14.34747174 </i>
   </energy>
  </scstep>
  <structure>
   <crystal>
    <varray name="basis" >
     <v>      -0.00000000       2.31985664       2.31985664 </v>
     <v>       2.31985664       0.00000000       2.31985664 </v>
     <v>       2.31985664       2.31985664       0.00000000 </v>
    </varray>
    <i name="volume">     24.96970665 </i>
    <varray name="rec_basis" >
     <v>      -0.21553056       0.21553056       0.21553056 </v>
     <v>       0.21553056      -0.21553056       0.21553056 </v>
     <v>       0.21553056       0.21553056      -0.21553056 </v>
    </varray>
   </crystal>
   <varray name="positions" >
    <v>       0.75000000       0.75000000       0.75000000 </v>
    <v>       0.25000000       0.25000000       0.25000000 </v>
    <v>      -0.00000000       0.00000000       0.00000000 </v>
   </varray>
  </structure>
  <varray name="forces" >
   <v>       0.00000000       0.00000000      -0.00000000 </v>
   <v>       0.00000000      -0.00000000       0.00000000 </v>
   <v>      -0.00000000      -0.00000000      -0.00000000 </v>
  </varray>
  <varray name="stress" >
   <v>      -6.89322505       0.00000000      -0.00000000 </v>
   <v>       0.00000000      -6.89322505       0.00000000 </v>
   <v>      -0.00000000       0.00000000      -6.89322505 </v>
  </varray>
  <energy>
   <i name="e_fr_energy">    -14.34747174 </i>
   <i name="e_wo_entrp">    -14.34747174 </i>
   <i name="e_0_energy">      0.00000000 </i>
  </energy>
  <time name="totalsc">   23.59   71.05</time>
 </calculation>
 <calculation>
  <scstep>
   <time name="dav">    2.11    6.35</time>
   <time name="total">    2.43    7.29</time>
   <energy>
    <i name="alphaZ">     18.67239410 </i>
    <i name="ewald">   -505.75109851 </i>
    <i name="hartreedc">   -194.42724784 </i>
    <i name="XCdc">     54.25402223 </i>
    <i name="pawpsdc">    637.70515087 </i>
    <i name="pawaedc">   -670.70372878 </i>
    <i name="eentropy">      0.00000000 </i>
    <i name="bandstr">   -192.00679558 </i>
    <i name="atom">    837.90368042 </i>
    <i name="e_fr_energy">    -14.35362310 </i>
    <i name="e_wo_entrp">    -14.35362310 </i>
    <i name="e_0_energy">    -14.35362310 </i>
   </energy>
  </scstep>
  <scstep>
   <time name="diag">    1.21    3.65</time>
   <time name="diis">    0.50    1.51</time>
   <time name="orth">    0.08    0.23</time>
   <time name="total">    2.10    6.31</time>
   <energy>
    <i name="e_fr_energy">    -14.34855959 </i>
    <i name="e_wo_entrp">    -14.34855959 </i>
    <i name="e_0_energy">    -14.34855959 </i>
   </energy>
  </scstep>
  <scstep>
   <time name="diag">    1.13    3.39</time>
   <time name="diis">    0.49    1.48</time>
   <time name="orth">    0.14    0.43</time>
   <time name="total">    2.07    6.24</time>
   <energy>
    <i name="e_fr_energy">    -14.34810274 </i>
    <i name="e_wo_entrp">    -14.34810274 </i>
    <i name="e_0_energy">    -14.34810274 </i>
   </energy>
  </scstep>
  <scstep>
   <time name="diag">    1.47    4.43</time>
   <time name="diis">    0.47    1.43</time>
   <time name="orth">    0.13    0.38</time>
   <time name="total">    2.33    7.02</time>
   <energy>
    <i name="alphaZ">     18.67239410 </i>
    <i name="ewald">   -505.75109851 </i>
    <i name="hartreedc">   -193.13260525 </i>
    <i name="XCdc">     54.13650418 </i>
    <i name="pawpsdc">    639.31194507 </i>
    <i name="pawaedc">   -672.29138117 </i>
    <i name="eentropy">      0.00000000 </i>
    <i name="bandstr">   -193.19746046 </i>
    <i name="atom">    837.90368042 </i>
    <i name="e_fr_energy">    -14.34802163 </i>
    <i name="e_wo_entrp">    -14.34802163 </i>
    <i name="e_0_energy">    -14.34802163 </i>
   </energy>
  </scstep>
  <structure>
   <crystal>
    <varray name="basis" >
     <v>      -0.00000000       2.31290929       2.31290929 </v>
     <v>       2.31290929       0.00000000       2.31290929 </v>
     <v>       2.31290929       2.31290929       0.00000000 </v>
    </varray>
    <i name="volume">     24.74604480 </i>
    <varray name="rec_basis" >
     <v>      -0.21617796       0.21617796       0.21617796 </v>
     <v>       0.21617796      -0.21617796       0.21617796 </v>
     <v>       0.21617796       0.21617796      -0.21617796 </v>
    </varray>
   </crystal>
   <varray name="positions" >
    <v>       0.75000000       0.75000000       0.75000000 </v>
    <v>       0.25000000       0.25000000       0.25000000 </v>
    <v>      -0.00000000       0.00000000       0.00000000 </v>
   </varray>
  </structure>
  <varray name="forces" >
   <v>       0.00000000       0.00000000       0.00000000 </v>
   <v>      -0.00000000      -0.00000000      -0.00000000 </v>
   <v>       0.00000000       0.00000000       0.00000000 </v>
  </varray>
  <varray name="stress" >
   <v>      -1.28023688       0.00000000      -0.00000000 </v>
   <v>      -0.00000000      -1.28023688       0.00000000 </v>
   <v>       0.00000000      -0.00000000      -1.28023688 </v>
  </varray>
  <energy>
   <i name="e_fr_energy">    -14.34802163 </i>
   <i name="e_wo_entrp">    -14.34802163 </i>
   <i name="e_0_energy">      0.00000000 </i>
  </energy>
  <time name="totalsc">   10.88   32.73</time>
  <eigenvalues>
   <array>
    <dimension dim="1">band</dimension>
    <dimension dim="2">kpoint</dimension>
    <dimension dim="3">spin</dimension>
    <field>eigene</field>
    <field>occ</field>
    <set>
     <set comment="spin 1">
      <set comment="kpoint 1">
       <r>  -41.6844    1.0000 </r>
       <r>  -41.3590    1.0000 </r>
       <r>  -14.1196    1.0000 </r>
       <r>    1.3222    1.0000 </r>
       <r>    1.3222    1.0000 </r>
       <r>    1.3222    1.0000 </r>
       <r>    6.5668    0.0000 </r>
       <r>   13.2281    0.0000 </r>
       <r>   13.2281    0.0000 </r>
       <r>   13.2281    0.0000 </r>
       <r>   20.2706    0.0000 </r>
       <r>   20.2706    0.0000 </r>
       <r>   20.2707    0.0000 </r>
       <r>   22.6067    0.0000 </r>
       <r>   22.6067    0.0000 </r>
       <r>   28.8668    0.0000 </r>
       <r>   29.0357    0.0000 </r>
       <r>   29.0357    0.0000 </r>
       <r>   29.0357    0.0000 </r>
       <r>   32.8413    0.0000 </r>
       <r>   47.5909    0.0000 </r>
       <r>   47.5909    0.0000 </r>
       <r>   47.5909    0.0000 </r>
       <r>   49.7906    0.0000 </r>
      </set>
      <set comment="kpoint 2">
       <r>  -41.6781    1.0000 </r>
       <r>  -41.3633    1.0000 </r>
       <r>  -14.1058    1.0000 </r>
       <r>    1.0813    1.0000 </r>
       <r>    1.2891    1.0000 </r>
       <r>    1.2891    1.0000 </r>
       <r>    6.7608    0.0000 </r>
       <r>   13.2430    0.0000 </r>
       <r>   13.3319    0.0000 </r>
       <r>   13.3319    0.0000 </r>
       <r>   19.4666    0.0000 </r>
       <r>   19.4667    0.0000 </r>
       <r>   20.5027    0.0000 </r>
       <r>   23.7495    0.0000 </r>
       <r>   23.7495    0.0000 </r>
       <r>   28.0102    0.0000 </r>
       <r>   29.0567    0.0000 </r>
       <r>   29.0567    0.0000 </r>
       <r>   29.9887    0.0000 </r>
       <r>   32.7479    0.0000 </r>
       <r>   45.6783    0.0000 </r>
       <r>   45.6784    0.0000 </r>
       <r>   47.5785    0.0000 </r>
       <r>   48.9805    0.0000 </r>
      </set>
      <set comment="kpoint 3">
       <r>  -41.6593    1.0000 </r>
       <r>  -41.3773    1.0000 </r>
       <r>  -14.0676    1.0000 </r>
       <r>    0.4867    1.0000 </r>
       <r>    1.2015    1.0000 </r>
       <r>    1.2015    1.0000 </r>
       <r>    7.2698    0.0000 </r>
       <r>   13.2195    0.0000 </r>
       <r>   13.5616    0.0000 </r>
       <r>   13.5616    0.0000 </r>
       <r>   18.4858    0.0000 </r>
       <r>   18.4858    0.0000 </r>
       <r>   21.1450    0.0000 </r>
       <r>   25.6848    0.0000 </r>
       <r>   25.6848    0.0000 </r>
       <r>   27.1928    0.0000 </r>
       <r>   29.1989    0.0000 </r>
       <r>   29.1989    0.0000 </r>
       <r>   31.0967    0.0000 </r>
       <r>   32.5295    0.0000 </r>
       <r>   42.5590    0.0000 </r>
       <r>   42.5590    0.0000 </r>
       <r>   46.8739    0.0000 </r>
       <r>   49.2127    0.0000 </r>
      </set>
      <set comment="kpoint 4">
       <r>  -41.6301    1.0000 </r>
       <r>  -41.4002    1.0000 </r>
       <r>  -14.0131    1.0000 </r>
       <r>   -0.2235    1.0000 </r>
       <r>    1.0879    1.0000 </r>
       <r>    1.0879    1.0000 </r>
       <r>    7.9811    0.0000 </r>
       <r>   13.0151    0.0000 </r>
       <r>   13.6998    0.0000 </r>
       <r>   13.6998    0.0000 </r>
       <r>   18.0745    0.0000 </r>
       <r>   18.0745    0.0000 </r>
       <r>   22.0472    0.0000 </r>
       <r>   26.5916    0.0000 </r>
       <r>   27.1110    0.0000 </r>
       <r>   27.1110    0.0000 </r>
       <r>   30.0489    0.0000 </r>
       <r>   30.0489    0.0000 </r>
       <r>   31.3536    0.0000 </r>
       <r>   33.3753    0.0000 </r>
       <r>   39.9339    0.0000 </r>
       <r>   39.9339    0.0000 </r>
       <r>   45.2411    0.0000 </r>
       <r>   49.6700    0.0000 </r>
      </set>
      <set comment="kpoint 5">
       <r>  -41.5933    1.0000 </r>
       <r>  -41.4308    1.0000 </r>
       <r>  -13.9560    1.0000 </r>
       <r>   -0.8565    1.0000 </r>
       <r>    0.9806    1.0000 </r>
       <r>    0.9806    1.0000 </r>
       <r>    8.8303    0.0000 </r>
       <r>   12.5297    0.0000 </r>
       <r>   13.6092    0.0000 </r>
       <r>   13.6092    0.0000 </r>
       <r>   18.3158    0.0000 </r>
       <r>   18.3158    0.0000 </r>
       <r>   22.9982    0.0000 </r>
       <r>   26.2739    0.0000 </r>
       <r>   27.2327    0.0000 </r>
       <r>   27.2327    0.0000 </r>
       <r>   30.8265    0.0000 </r>
       <r>   32.0794    0.0000 </r>
       <r>   32.0794    0.0000 </r>
       <r>   35.3300    0.0000 </r>
       <r>   38.2570    0.0000 </r>
       <r>   38.2570    0.0000 </r>
       <r>   43.6281    0.0000 </r>
       <r>   48.2438    0.0000 </r>
      </set>
      <set comment="kpoint 6">
       <r>  -41.5517    1.0000 </r>
       <r>  -41.4677    1.0000 </r>
       <r>  -13.9120    1.0000 </r>
       <r>   -1.2847    1.0000 </r>
       <r>    0.9056    1.0000 </r>
       <r>    0.9056    1.0000 </r>
       <r>    9.7644    0.0000 </r>
       <r>   11.7857    0.0000 </r>
       <r>   13.4333    0.0000 </r>
       <r>   13.4333    0.0000 </r>
       <r>   18.8401    0.0000 </r>
       <r>   18.8401    0.0000 </r>
       <r>   23.7608    0.0000 </r>
       <r>   26.1836    0.0000 </r>
       <r>   26.8414    0.0000 </r>
       <r>   26.8414    0.0000 </r>
       <r>   30.3065    0.0000 </r>
       <r>   33.8283    0.0000 </r>
       <r>   33.8283    0.0000 </r>
       <r>   37.3877    0.0000 </r>
       <r>   38.3335    0.0000 </r>
       <r>   38.3335    0.0000 </r>
       <r>   42.9692    0.0000 </r>
       <r>   44.5122    0.0000 </r>
      </set>
      <set comment="kpoint 7">
       <r>  -41.5095    1.0000 </r>
       <r>  -41.5085    1.0000 </r>
       <r>  -13.8958    1.0000 </r>
       <r>   -1.4355    1.0000 </r>
       <r>    0.8789    1.0000 </r>
       <r>    0.8789    1.0000 </r>
       <r>   10.5038    0.0000 </r>
       <r>   11.1005    0.0000 </r>
       <r>   13.3542    0.0000 </r>
       <r>   13.3543    0.0000 </r>
       <r>   19.1074    0.0000 </r>
       <r>   19.1074    0.0000 </r>
       <r>   24.0601    0.0000 </r>
       <r>   26.1770    0.0000 </r>
       <r>   26.6123    0.0000 </r>
       <r>   26.6123    0.0000 </r>
       <r>   30.0824    0.0000 </r>
       <r>   34.2433    0.0000 </r>
       <r>   34.2433    0.0000 </r>
       <r>   38.2889    0.0000 </r>
       <r>   40.0809    0.0000 </r>
       <r>   40.0809    0.0000 </r>
       <r>   41.6922    0.0000 </r>
       <r>   41.6922    0.0000 </r>
      </set>
      <set comment="kpoint 8">
       <r>  -41.6761    1.0000 </r>
       <r>  -41.3647    1.0000 </r>
       <r>  -14.1014    1.0000 </r>
       <r>    1.1274    1.0000 </r>
       <r>    1.2169    1.0000 </r>
       <r>    1.2169    1.0000 </r>
       <r>    6.8093    0.0000 </r>
       <r>   13.2919    0.0000 </r>
       <r>   13.2919    0.0000 </r>
       <r>   13.4255    0.0000 </r>
       <r>   18.3330    0.0000 </r>
       <r>   20.7340    0.0000 </r>
       <r>   20.7341    0.0000 </r>
       <r>   22.8009    0.0000 </r>
       <r>   24.4125    0.0000 </r>
       <r>   28.3546    0.0000 </r>
       <r>   28.9063    0.0000 </r>
       <r>   28.9063    0.0000 </r>
       <r>   30.2025    0.0000 </r>
       <r>   32.6927    0.0000 </r>
       <r>   45.8744    0.0000 </r>
       <r>   45.8744    0.0000 </r>
       <r>   46.0182    0.0000 </r>
       <r>   47.7920    0.0000 </r>
      </set>
      <set comment="kpoint 9">
       <r>  -41.6617    1.0000 </r>
       <r>  -41.3753    1.0000 </r>
       <r>  -14.0717    1.0000 </r>
       <r>    0.6766    1.0000 </r>
       <r>    1.0967    1.0000 </r>
       <r>    1.1835    1.0000 </r>
       <r>    7.1679    0.0000 </r>
       <r>   13.3087    0.0000 </r>
       <r>   13.4209    0.0000 </r>
       <r>   13.7293    0.0000 </r>
       <r>   17.2706    0.0000 </r>
       <r>   20.3013    0.0000 </r>
       <r>   21.3108    0.0000 </r>
       <r>   24.2320    0.0000 </r>
       <r>   25.2026    0.0000 </r>
       <r>   28.1578    0.0000 </r>
       <r>   28.7787    0.0000 </r>
       <r>   29.5245    0.0000 </r>
       <r>   31.0515    0.0000 </r>
       <r>   32.4393    0.0000 </r>
       <r>   42.5851    0.0000 </r>
       <r>   43.8200    0.0000 </r>
       <r>   46.2851    0.0000 </r>
       <r>   47.6381    0.0000 </r>
      </set>
      <set comment="kpoint 10">
       <r>  -41.6367    1.0000 </r>
       <r>  -41.3946    1.0000 </r>
       <r>  -14.0229    1.0000 </r>
       <r>    0.0129    1.0000 </r>
       <r>    0.9654    1.0000 </r>
       <r>    1.1113    1.0000 </r>
       <r>    7.7481    0.0000 </r>
       <r>   13.1358    0.0000 </r>
       <r>   13.5627    0.0000 </r>
       <r>   14.0691    0.0000 </r>
       <r>   16.7487    0.0000 </r>
       <r>   19.7033    0.0000 </r>
       <r>   22.0613    0.0000 </r>
       <r>   25.6146    0.0000 </r>
       <r>   26.4103    0.0000 </r>
       <r>   27.8851    0.0000 </r>
       <r>   28.7406    0.0000 </r>
       <r>   30.9628    0.0000 </r>
       <r>   31.6428    0.0000 </r>
       <r>   32.8703    0.0000 </r>
       <r>   39.8164    0.0000 </r>
       <r>   41.1845    0.0000 </r>
       <r>   46.2667    0.0000 </r>
       <r>   46.8211    0.0000 </r>
      </set>
      <set comment="kpoint 11">
       <r>  -41.6030    1.0000 </r>
       <r>  -41.4219    1.0000 </r>
       <r>  -13.9667    1.0000 </r>
       <r>   -0.6373    1.0000 </r>
       <r>    0.8591    1.0000 </r>
       <r>    1.0010    1.0000 </r>
       <r>    8.4828    0.0000 </r>
       <r>   12.6886    0.0000 </r>
       <r>   13.5859    0.0000 </r>
       <r>   14.1106    0.0000 </r>
       <r>   17.0365    0.0000 </r>
       <r>   19.5295    0.0000 </r>
       <r>   22.8752    0.0000 </r>
       <r>   25.7324    0.0000 </r>
       <r>   27.3519    0.0000 </r>
       <r>   27.6699    0.0000 </r>
       <r>   30.0150    0.0000 </r>
       <r>   31.1153    0.0000 </r>
       <r>   32.9454    0.0000 </r>
       <r>   34.8081    0.0000 </r>
       <r>   37.9512    0.0000 </r>
       <r>   39.0297    0.0000 </r>
       <r>   44.5193    0.0000 </r>
       <r>   47.4539    0.0000 </r>
      </set>
      <set comment="kpoint 12">
       <r>  -41.5639    1.0000 </r>
       <r>  -41.4557    1.0000 </r>
       <r>  -13.9181    1.0000 </r>
       <r>   -1.1285    1.0000 </r>
       <r>    0.8029    1.0000 </r>
       <r>    0.8850    1.0000 </r>
       <r>    9.3122    0.0000 </r>
       <r>   12.0314    0.0000 </r>
       <r>   13.5140    0.0000 </r>
       <r>   13.9018    0.0000 </r>
       <r>   17.8770    0.0000 </r>
       <r>   19.5560    0.0000 </r>
       <r>   23.6174    0.0000 </r>
       <r>   25.8551    0.0000 </r>
       <r>   26.9958    0.0000 </r>
       <r>   27.2926    0.0000 </r>
       <r>   30.6065    0.0000 </r>
       <r>   32.3982    0.0000 </r>
       <r>   34.4865    0.0000 </r>
       <r>   36.6643    0.0000 </r>
       <r>   37.3891    0.0000 </r>
       <r>   38.8502    0.0000 </r>
       <r>   43.3096    0.0000 </r>
       <r>   44.6849    0.0000 </r>
      </set>
      <set comment="kpoint 13">
       <r>  -41.5226    1.0000 </r>
       <r>  -41.4946    1.0000 </r>
       <r>  -13.8923    1.0000 </r>
       <r>   -1.3704    1.0000 </r>
       <r>    0.7933    1.0000 </r>
       <r>    0.8079    1.0000 </r>
       <r>   10.0796    0.0000 </r>
       <r>   11.3334    0.0000 </r>
       <r>   13.4794    0.0000 </r>
       <r>   13.7194    0.0000 </r>
       <r>   18.7700    0.0000 </r>
       <r>   19.3086    0.0000 </r>
       <r>   24.0644    0.0000 </r>
       <r>   26.0906    0.0000 </r>
       <r>   26.7507    0.0000 </r>
       <r>   26.7781    0.0000 </r>
       <r>   30.2879    0.0000 </r>
       <r>   34.0318    0.0000 </r>
       <r>   34.2237    0.0000 </r>
       <r>   38.1297    0.0000 </r>
       <r>   38.7809    0.0000 </r>
       <r>   40.4534    0.0000 </r>
       <r>   41.9193    0.0000 </r>
       <r>   43.2828    0.0000 </r>
      </set>
      <set comment="kpoint 14">
       <r>  -41.5358    1.0000 </r>
       <r>  -41.4818    1.0000 </r>
       <r>  -13.8976    1.0000 </r>
       <r>   -1.3229    1.0000 </r>
       <r>    0.7483    1.0000 </r>
       <r>    0.8715    1.0000 </r>
       <r>    9.9461    0.0000 </r>
       <r>   11.4293    0.0000 </r>
       <r>   13.5896    0.0000 </r>
       <r>   13.6826    0.0000 </r>
       <r>   18.5543    0.0000 </r>
       <r>   19.3376    0.0000 </r>
       <r>   23.9779    0.0000 </r>
       <r>   26.1483    0.0000 </r>
       <r>   26.6835    0.0000 </r>
       <r>   26.9330    0.0000 </r>
       <r>   30.3214    0.0000 </r>
       <r>   33.4440    0.0000 </r>
       <r>   34.7666    0.0000 </r>
       <r>   37.3223    0.0000 </r>
       <r>   38.8091    0.0000 </r>
       <r>   39.7903    0.0000 </r>
       <r>   42.2446    0.0000 </r>
       <r>   43.2562    0.0000 </r>
      </set>
      <set comment="kpoint 15">
       <r>  -41.5769    1.0000 </r>
       <r>  -41.4444    1.0000 </r>
       <r>  -13.9324    1.0000 </r>
       <r>   -0.9947    1.0000 </r>
       <r>    0.7617    1.0000 </r>
       <r>    0.9795    1.0000 </r>
       <r>    9.1213    0.0000 </r>
       <r>   12.1125    0.0000 </r>
       <r>   13.7333    0.0000 </r>
       <r>   13.8633    0.0000 </r>
       <r>   17.5547    0.0000 </r>
       <r>   19.4782    0.0000 </r>
       <r>   23.4131    0.0000 </r>
       <r>   25.8455    0.0000 </r>
       <r>   27.2603    0.0000 </r>
       <r>   27.2766    0.0000 </r>
       <r>   30.5715    0.0000 </r>
       <r>   31.9425    0.0000 </r>
       <r>   34.2773    0.0000 </r>
       <r>   36.0226    0.0000 </r>
       <r>   37.2477    0.0000 </r>
       <r>   38.6201    0.0000 </r>
       <r>   43.5575    0.0000 </r>
       <r>   45.8881    0.0000 </r>
      </set>
      <set comment="kpoint 16">
       <r>  -41.6146    1.0000 </r>
       <r>  -41.4125    1.0000 </r>
       <r>  -13.9853    1.0000 </r>
       <r>   -0.4447    1.0000 </r>
       <r>    0.8343    1.0000 </r>
       <r>    1.1069    1.0000 </r>
       <r>    8.2950    0.0000 </r>
       <r>   12.7016    0.0000 </r>
       <r>   13.7220    0.0000 </r>
       <r>   14.1370    0.0000 </r>
       <r>   16.8212    0.0000 </r>
       <r>   19.4337    0.0000 </r>
       <r>   22.6701    0.0000 </r>
       <r>   25.5510    0.0000 </r>
       <r>   27.3936    0.0000 </r>
       <r>   27.7378    0.0000 </r>
       <r>   29.5436    0.0000 </r>
       <r>   31.4694    0.0000 </r>
       <r>   32.1619    0.0000 </r>
       <r>   33.9965    0.0000 </r>
       <r>   38.1084    0.0000 </r>
       <r>   39.9805    0.0000 </r>
       <r>   45.0148    0.0000 </r>
       <r>   47.6717    0.0000 </r>
      </set>
      <set comment="kpoint 17">
       <r>  -41.6458    1.0000 </r>
       <r>  -41.3876    1.0000 </r>
       <r>  -14.0406    1.0000 </r>
       <r>    0.2137    1.0000 </r>
       <r>    0.9563    1.0000 </r>
       <r>    1.2217    1.0000 </r>
       <r>    7.5827    0.0000 </r>
       <r>   13.0878    0.0000 </r>
       <r>   13.5715    0.0000 </r>
       <r>   14.0108    0.0000 </r>
       <r>   16.9745    0.0000 </r>
       <r>   19.4785    0.0000 </r>
       <r>   21.9422    0.0000 </r>
       <r>   24.8553    0.0000 </r>
       <r>   26.8806    0.0000 </r>
       <r>   27.7258    0.0000 </r>
       <r>   28.7052    0.0000 </r>
       <r>   30.2557    0.0000 </r>
       <r>   31.6600    0.0000 </r>
       <r>   32.4728    0.0000 </r>
       <r>   40.2762    0.0000 </r>
       <r>   42.4104    0.0000 </r>
       <r>   46.7467    0.0000 </r>
       <r>   47.1934    0.0000 </r>
      </set>
      <set comment="kpoint 18">
       <r>  -41.6677    1.0000 </r>
       <r>  -41.3710    1.0000 </r>
       <r>  -14.0841    1.0000 </r>
       <r>    0.7939    1.0000 </r>
       <r>    1.1198    1.0000 </r>
       <r>    1.2902    1.0000 </r>
       <r>    7.0442    0.0000 </r>
       <r>   13.2518    0.0000 </r>
       <r>   13.3762    0.0000 </r>
       <r>   13.6078    0.0000 </r>
       <r>   17.9967    0.0000 </r>
       <r>   19.6566    0.0000 </r>
       <r>   21.1722    0.0000 </r>
       <r>   23.8910    0.0000 </r>
       <r>   25.4503    0.0000 </r>
       <r>   27.7668    0.0000 </r>
       <r>   28.7874    0.0000 </r>
       <r>   29.3626    0.0000 </r>
       <r>   30.7147    0.0000 </r>
       <r>   32.5563    0.0000 </r>
       <r>   43.0786    0.0000 </r>
       <r>   44.8385    0.0000 </r>
       <r>   47.4912    0.0000 </r>
       <r>   47.6253    0.0000 </r>
      </set>
      <set comment="kpoint 19">
       <r>  -41.6529    1.0000 </r>
       <r>  -41.3817    1.0000 </r>
       <r>  -14.0520    1.0000 </r>
       <r>    0.6958    1.0000 </r>
       <r>    0.9406    1.0000 </r>
       <r>    0.9406    1.0000 </r>
       <r>    7.2655    0.0000 </r>
       <r>   13.4983    0.0000 </r>
       <r>   13.4983    0.0000 </r>
       <r>   13.9928    0.0000 </r>
       <r>   16.2498    0.0000 </r>
       <r>   22.0141    0.0000 </r>
       <r>   22.0142    0.0000 </r>
       <r>   23.3836    0.0000 </r>
       <r>   24.5869    0.0000 </r>
       <r>   28.5554    0.0000 </r>
       <r>   28.5554    0.0000 </r>
       <r>   30.5969    0.0000 </r>
       <r>   31.5689    0.0000 </r>
       <r>   32.1684    0.0000 </r>
       <r>   41.9875    0.0000 </r>
       <r>   43.6164    0.0000 </r>
       <r>   43.6164    0.0000 </r>
       <r>   48.3858    0.0000 </r>
      </set>
      <set comment="kpoint 20">
       <r>  -41.6334    1.0000 </r>
       <r>  -41.3961    1.0000 </r>
       <r>  -14.0126    1.0000 </r>
       <r>    0.2229    1.0000 </r>
       <r>    0.7798    1.0000 </r>
       <r>    0.8892    1.0000 </r>
       <r>    7.5438    0.0000 </r>
       <r>   13.4679    0.0000 </r>
       <r>   13.6542    0.0000 </r>
       <r>   14.4472    0.0000 </r>
       <r>   15.7361    0.0000 </r>
       <r>   21.6774    0.0000 </r>
       <r>   22.7021    0.0000 </r>
       <r>   24.4556    0.0000 </r>
       <r>   25.2442    0.0000 </r>
       <r>   28.2549    0.0000 </r>
       <r>   28.3209    0.0000 </r>
       <r>   31.7270    0.0000 </r>
       <r>   31.9492    0.0000 </r>
       <r>   33.1616    0.0000 </r>
       <r>   39.5013    0.0000 </r>
       <r>   41.9295    0.0000 </r>
       <r>   43.5814    0.0000 </r>
       <r>   47.7297    0.0000 </r>
      </set>
      <set comment="kpoint 21">
       <r>  -41.6055    1.0000 </r>
       <r>  -41.4183    1.0000 </r>
       <r>  -13.9626    1.0000 </r>
       <r>   -0.3706    1.0000 </r>
       <r>    0.6569    1.0000 </r>
       <r>    0.8231    1.0000 </r>
       <r>    7.9927    0.0000 </r>
       <r>   13.0823    0.0000 </r>
       <r>   13.7613    0.0000 </r>
       <r>   14.7210    0.0000 </r>
       <r>   16.0486    0.0000 </r>
       <r>   21.1359    0.0000 </r>
       <r>   23.0638    0.0000 </r>
       <r>   24.8540    0.0000 </r>
       <r>   27.6197    0.0000 </r>
       <r>   27.9984    0.0000 </r>
       <r>   28.2552    0.0000 </r>
       <r>   31.3361    0.0000 </r>
       <r>   33.2055    0.0000 </r>
       <r>   35.4879    0.0000 </r>
       <r>   37.4969    0.0000 </r>
       <r>   39.7956    0.0000 </r>
       <r>   44.0993    0.0000 </r>
       <r>   45.8673    0.0000 </r>
      </set>
      <set comment="kpoint 22">
       <r>  -41.5716    1.0000 </r>
       <r>  -41.4469    1.0000 </r>
       <r>  -13.9149    1.0000 </r>
       <r>   -0.8741    1.0000 </r>
       <r>    0.6004    1.0000 </r>
       <r>    0.7039    1.0000 </r>
       <r>    8.5825    0.0000 </r>
       <r>   12.5138    0.0000 </r>
       <r>   13.7850    0.0000 </r>
       <r>   14.6329    0.0000 </r>
       <r>   16.9885    0.0000 </r>
       <r>   20.6723    0.0000 </r>
       <r>   23.4707    0.0000 </r>
       <r>   25.3004    0.0000 </r>
       <r>   27.3946    0.0000 </r>
       <r>   27.6968    0.0000 </r>
       <r>   30.8867    0.0000 </r>
       <r>   30.9408    0.0000 </r>
       <r>   35.0168    0.0000 </r>
       <r>   36.4263    0.0000 </r>
       <r>   36.6002    0.0000 </r>
       <r>   39.6796    0.0000 </r>
       <r>   44.2726    0.0000 </r>
       <r>   44.7787    0.0000 </r>
      </set>
      <set comment="kpoint 23">
       <r>  -41.5345    1.0000 </r>
       <r>  -41.4807    1.0000 </r>
       <r>  -13.8834    1.0000 </r>
       <r>   -1.1809    1.0000 </r>
       <r>    0.5707    1.0000 </r>
       <r>    0.6212    1.0000 </r>
       <r>    9.2188    0.0000 </r>
       <r>   11.8843    0.0000 </r>
       <r>   13.7989    0.0000 </r>
       <r>   14.4655    0.0000 </r>
       <r>   18.0862    0.0000 </r>
       <r>   19.9283    0.0000 </r>
       <r>   23.9708    0.0000 </r>
       <r>   25.7183    0.0000 </r>
       <r>   27.1427    0.0000 </r>
       <r>   27.2060    0.0000 </r>
       <r>   30.5970    0.0000 </r>
       <r>   33.4678    0.0000 </r>
       <r>   34.6534    0.0000 </r>
       <r>   37.2216    0.0000 </r>
       <r>   37.7206    0.0000 </r>
       <r>   41.2790    0.0000 </r>
       <r>   42.4399    0.0000 </r>
       <r>   43.6324    0.0000 </r>
      </set>
      <set comment="kpoint 24">
       <r>  -41.5177    1.0000 </r>
       <r>  -41.4972    1.0000 </r>
       <r>  -13.8786    1.0000 </r>
       <r>   -1.2367    1.0000 </r>
       <r>    0.4666    1.0000 </r>
       <r>    0.7137    1.0000 </r>
       <r>    9.6299    0.0000 </r>
       <r>   11.4218    0.0000 </r>
       <r>   13.9145    0.0000 </r>
       <r>   14.3639    0.0000 </r>
       <r>   18.7613    0.0000 </r>
       <r>   19.1054    0.0000 </r>
       <r>   24.1758    0.0000 </r>
       <r>   26.2536    0.0000 </r>
       <r>   26.6002    0.0000 </r>
       <r>   27.2271    0.0000 </r>
       <r>   30.3640    0.0000 </r>
       <r>   33.6246    0.0000 </r>
       <r>   35.1692    0.0000 </r>
       <r>   37.3027    0.0000 </r>
       <r>   39.7178    0.0000 </r>
       <r>   39.9086    0.0000 </r>
       <r>   42.0057    0.0000 </r>
       <r>   43.0558    0.0000 </r>
      </set>
      <set comment="kpoint 25">
       <r>  -41.5555    1.0000 </r>
       <r>  -41.4619    1.0000 </r>
       <r>  -13.9018    1.0000 </r>
       <r>   -1.0390    1.0000 </r>
       <r>    0.4273    1.0000 </r>
       <r>    0.8570    1.0000 </r>
       <r>    9.3630    0.0000 </r>
       <r>   11.5901    0.0000 </r>
       <r>   14.2210    0.0000 </r>
       <r>   14.2912    0.0000 </r>
       <r>   17.3854    0.0000 </r>
       <r>   19.9062    0.0000 </r>
       <r>   23.8675    0.0000 </r>
       <r>   25.8024    0.0000 </r>
       <r>   27.0855    0.0000 </r>
       <r>   27.4396    0.0000 </r>
       <r>   30.1812    0.0000 </r>
       <r>   32.8039    0.0000 </r>
       <r>   35.5799    0.0000 </r>
       <r>   36.1989    0.0000 </r>
       <r>   37.9078    0.0000 </r>
       <r>   39.3057    0.0000 </r>
       <r>   43.3470    0.0000 </r>
       <r>   43.4341    0.0000 </r>
      </set>
      <set comment="kpoint 26">
       <r>  -41.5914    1.0000 </r>
       <r>  -41.4309    1.0000 </r>
       <r>  -13.9455    1.0000 </r>
       <r>   -0.6438    1.0000 </r>
       <r>    0.4814    1.0000 </r>
       <r>    1.0171    1.0000 </r>
       <r>    8.7181    0.0000 </r>
       <r>   12.1297    0.0000 </r>
       <r>   14.1281    0.0000 </r>
       <r>   14.7452    0.0000 </r>
       <r>   16.0971    0.0000 </r>
       <r>   20.3270    0.0000 </r>
       <r>   23.5125    0.0000 </r>
       <r>   24.8968    0.0000 </r>
       <r>   27.5489    0.0000 </r>
       <r>   27.7403    0.0000 </r>
       <r>   29.5267    0.0000 </r>
       <r>   32.1370    0.0000 </r>
       <r>   34.7088    0.0000 </r>
       <r>   34.9448    0.0000 </r>
       <r>   36.3836    0.0000 </r>
       <r>   39.7522    0.0000 </r>
       <r>   44.8690    0.0000 </r>
       <r>   45.2505    0.0000 </r>
      </set>
      <set comment="kpoint 27">
       <r>  -41.6224    1.0000 </r>
       <r>  -41.4057    1.0000 </r>
       <r>  -13.9964    1.0000 </r>
       <r>   -0.1749    1.0000 </r>
       <r>    0.6595    1.0000 </r>
       <r>    1.1522    1.0000 </r>
       <r>    8.0833    0.0000 </r>
       <r>   12.6770    0.0000 </r>
       <r>   13.8457    0.0000 </r>
       <r>   14.7436    0.0000 </r>
       <r>   15.8526    0.0000 </r>
       <r>   20.1211    0.0000 </r>
       <r>   23.3791    0.0000 </r>
       <r>   23.9745    0.0000 </r>
       <r>   27.4266    0.0000 </r>
       <r>   28.1912    0.0000 </r>
       <r>   28.6371    0.0000 </r>
       <r>   32.1159    0.0000 </r>
       <r>   32.2355    0.0000 </r>
       <r>   33.1102    0.0000 </r>
       <r>   37.9401    0.0000 </r>
       <r>   41.5182    0.0000 </r>
       <r>   45.4460    0.0000 </r>
       <r>   46.4001    0.0000 </r>
      </set>
      <set comment="kpoint 28">
       <r>  -41.6210    1.0000 </r>
       <r>  -41.4048    1.0000 </r>
       <r>  -13.9845    1.0000 </r>
       <r>    0.2616    1.0000 </r>
       <r>    0.5867    1.0000 </r>
       <r>    0.5867    1.0000 </r>
       <r>    7.4005    0.0000 </r>
       <r>   13.8503    0.0000 </r>
       <r>   13.8503    0.0000 </r>
       <r>   14.8506    0.0000 </r>
       <r>   15.1920    0.0000 </r>
       <r>   23.4864    0.0000 </r>
       <r>   23.7385    0.0000 </r>
       <r>   23.7385    0.0000 </r>
       <r>   24.3546    0.0000 </r>
       <r>   28.2507    0.0000 </r>
       <r>   28.2507    0.0000 </r>
       <r>   31.3506    0.0000 </r>
       <r>   32.4134    0.0000 </r>
       <r>   35.0335    0.0000 </r>
       <r>   38.3187    0.0000 </r>
       <r>   41.8289    0.0000 </r>
       <r>   41.8289    0.0000 </r>
       <r>   47.1823    0.0000 </r>
      </set>
      <set comment="kpoint 29">
       <r>  -41.6006    1.0000 </r>
[...]
        <r>  0.0666  0.1750  0.0052  0.0077  0.0000  0.0000  0.0000  0.0000  0.0000 </r>
        <r>  0.0666  0.1750  0.0052  0.0077  0.0000  0.0000  0.0000  0.0000  0.0000 </r>
        <r>  0.0055  0.0092  0.0000  0.0002  0.0000  0.0000  0.0000  0.0000  0.0000 </r>
       </set>
       <set comment="band 13">
        <r>  0.0029  0.0032  0.1454  0.1317  0.0000  0.0000  0.0000  0.0000  0.0000 </r>
        <r>  0.0029  0.0032  0.1454  0.1317  0.0000  0.0000  0.0000  0.0000  0.0000 </r>
        <r>  0.0002  0.1306  0.0000  0.0032  0.0000  0.0000  0.0000  0.0000  0.0000 </r>
       </set>
       <set comment="band 14">
        <r>  0.0087  0.0201  0.4037  0.1963  0.0000  0.0000  0.0000  0.0000  0.0000 </r>
        <r>  0.0087  0.0201  0.4037  0.1963  0.0000  0.0000  0.0000  0.0000  0.0000 </r>
        <r>  0.0000  0.0000  0.0127  0.0000  0.0000  0.0000  0.0000  0.0000  0.0000 </r>
       </set>
       <set comment="band 15">
        <r>  0.0002  0.0259  0.0131  0.0184  0.0000  0.0000  0.0000  0.0000  0.0000 </r>
        <r>  0.0002  0.0259  0.0131  0.0184  0.0000  0.0000  0.0000  0.0000  0.0000 </r>
        <r>  0.0515  0.0013  0.0000  0.0276  0.0000  0.0000  0.0000  0.0000  0.0000 </r>
       </set>
       <set comment="band 16">
        <r>  0.0344  0.0086  0.3081  0.3615  0.0000  0.0000  0.0000  0.0000  0.0000 </r>
        <r>  0.0344  0.0086  0.3081  0.3615  0.0000  0.0000  0.0000  0.0000  0.0000 </r>
        <r>  0.0000  0.0000  0.0010  0.0000  0.0000  0.0000  0.0000  0.0000  0.0000 </r>
       </set>
       <set comment="band 17">
        <r>  0.0200  0.0065  0.0108  0.0004  0.0000  0.0000  0.0000  0.0000  0.0000 </r>
        <r>  0.0200  0.0065  0.0108  0.0004  0.0000  0.0000  0.0000  0.0000  0.0000 </r>
        <r>  0.0034  0.0371  0.0000  0.0112  0.0000  0.0000  0.0000  0.0000  0.0000 </r>
       </set>
       <set comment="band 18">
        <r>  0.0154  0.0825  0.0044  0.1597  0.0000  0.0000  0.0000  0.0000  0.0000 </r>
        <r>  0.0154  0.0825  0.0044  0.1597  0.0000  0.0000  0.0000  0.0000  0.0000 </r>
        <r>  0.0000  0.0000  0.0076  0.0000  0.0000  0.0000  0.0000  0.0000  0.0000 </r>
       </set>
       <set comment="band 19">
        <r>  0.0002  0.0338  0.0034  0.0376  0.0000  0.0000  0.0000  0.0000  0.0000 </r>
        <r>  0.0002  0.0338  0.0034  0.0376  0.0000  0.0000  0.0000  0.0000  0.0000 </r>
        <r>  0.0408  0.0003  0.0000  0.0097  0.0000  0.0000  0.0000  0.0000  0.0000 </r>
       </set>
       <set comment="band 20">
        <r>  0.0094  0.0021  0.0024  0.0808  0.0000  0.0000  0.0000  0.0000  0.0000 </r>
        <r>  0.0094  0.0021  0.0024  0.0808  0.0000  0.0000  0.0000  0.0000  0.0000 </r>
        <r>  0.0000  0.0000  0.0279  0.0000  0.0000  0.0000  0.0000  0.0000  0.0000 </r>
       </set>
       <set comment="band 21">
        <r>  0.0527  0.0056  0.0060  0.0360  0.0000  0.0000  0.0000  0.0000  0.0000 </r>
        <r>  0.0527  0.0056  0.0060  0.0360  0.0000  0.0000  0.0000  0.0000  0.0000 </r>
        <r>  0.0012  0.0093  0.0000  0.0014  0.0000  0.0000  0.0000  0.0000  0.0000 </r>
       </set>
       <set comment="band 22">
        <r>  0.0319  0.3413  0.0369  0.0399  0.0000  0.0000  0.0000  0.0000  0.0000 </r>
        <r>  0.0319  0.3413  0.0369  0.0399  0.0000  0.0000  0.0000  0.0000  0.0000 </r>
        <r>  0.0000  0.0000  0.0148  0.0000  0.0000  0.0000  0.0000  0.0000  0.0000 </r>
       </set>
       <set comment="band 23">
        <r>  0.0002  0.4809  0.0013  0.0058  0.0000  0.0000  0.0000  0.0000  0.0000 </r>
        <r>  0.0002  0.4809  0.0013  0.0058  0.0000  0.0000  0.0000  0.0000  0.0000 </r>
        <r>  0.0029  0.0044  0.0000  0.0127  0.0000  0.0000  0.0000  0.0000  0.0000 </r>
       </set>
       <set comment="band 24">
        <r>  0.0000  0.1643  0.0810  0.0740  0.0000  0.0000  0.0000  0.0000  0.0000 </r>
        <r>  0.0000  0.1646  0.0813  0.0738  0.0000  0.0000  0.0000  0.0000  0.0000 </r>
        <r>  0.0394  0.0001  0.0000  0.0154  0.0000  0.0000  0.0000  0.0000  0.0000 </r>
       </set>
      </set>
      <set comment="kpoint 71">
       <set comment="band 1">
        <r>  0.4938  0.0000  0.0000  0.0000  0.0000  0.0000  0.0000  0.0000  0.0000 </r>
        <r>  0.4938  0.0000  0.0000  0.0000  0.0000  0.0000  0.0000  0.0000  0.0000 </r>
        <r>  0.0000  0.0000  0.0002  0.0000  0.0000  0.0000  0.0000  0.0000  0.0000 </r>
       </set>
       <set comment="band 2">
        <r>  0.4948  0.0000  0.0000  0.0000  0.0000  0.0000  0.0000  0.0000  0.0000 </r>
        <r>  0.4948  0.0000  0.0000  0.0000  0.0000  0.0000  0.0000  0.0000  0.0000 </r>
        <r>  0.0000  0.0000  0.0000  0.0001  0.0000  0.0000  0.0000  0.0000  0.0000 </r>
       </set>
       <set comment="band 3">
        <r>  0.0000  0.0000  0.0018  0.0006  0.0000  0.0000  0.0000  0.0000  0.0000 </r>
        <r>  0.0000  0.0000  0.0018  0.0006  0.0000  0.0000  0.0000  0.0000  0.0000 </r>
        <r>  0.7718  0.0000  0.0000  0.0000  0.0000  0.0000  0.0000  0.0000  0.0000 </r>
       </set>
       <set comment="band 4">
        <r>  0.0000  0.0000  0.0084  0.0181  0.0000  0.0000  0.0000  0.0000  0.0000 </r>
        <r>  0.0000  0.0000  0.0084  0.0181  0.0000  0.0000  0.0000  0.0000  0.0000 </r>
        <r>  0.0002  0.5167  0.0000  0.0000  0.0000  0.0000  0.0000  0.0000  0.0000 </r>
       </set>
       <set comment="band 5">
        <r>  0.0243  0.0050  0.0000  0.0000  0.0000  0.0000  0.0000  0.0000  0.0000 </r>
        <r>  0.0243  0.0050  0.0000  0.0000  0.0000  0.0000  0.0000  0.0000  0.0000 </r>
        <r>  0.0000  0.0000  0.5624  0.0000  0.0000  0.0000  0.0000  0.0000  0.0000 </r>
       </set>
       <set comment="band 6">
        <r>  0.0087  0.0165  0.0000  0.0000  0.0000  0.0000  0.0000  0.0000  0.0000 </r>
        <r>  0.0087  0.0165  0.0000  0.0000  0.0000  0.0000  0.0000  0.0000  0.0000 </r>
        <r>  0.0000  0.0000  0.0000  0.5712  0.0000  0.0000  0.0000  0.0000  0.0000 </r>
       </set>
       <set comment="band 7">
        <r>  0.0000  0.0000  0.0582  0.0004  0.0000  0.0000  0.0000  0.0000  0.0000 </r>
        <r>  0.0000  0.0000  0.0582  0.0004  0.0000  0.0000  0.0000  0.0000  0.0000 </r>
        <r>  0.0227  0.1394  0.0000  0.0000  0.0000  0.0000  0.0000  0.0000  0.0000 </r>
       </set>
       <set comment="band 8">
        <r>  0.0000  0.0000  0.0384  0.1314  0.0000  0.0000  0.0000  0.0000  0.0000 </r>
        <r>  0.0000  0.0000  0.0384  0.1314  0.0000  0.0000  0.0000  0.0000  0.0000 </r>
        <r>  0.0631  0.0972  0.0000  0.0000  0.0000  0.0000  0.0000  0.0000  0.0000 </r>
       </set>
       <set comment="band 9">
        <r>  0.0389  0.1145  0.0000  0.0000  0.0000  0.0000  0.0000  0.0000  0.0000 </r>
        <r>  0.0389  0.1145  0.0000  0.0000  0.0000  0.0000  0.0000  0.0000  0.0000 </r>
        <r>  0.0000  0.0000  0.0000  0.2800  0.0000  0.0000  0.0000  0.0000  0.0000 </r>
       </set>
       <set comment="band 10">
        <r>  0.0849  0.0289  0.0000  0.0000  0.0000  0.0000  0.0000  0.0000  0.0000 </r>
        <r>  0.0849  0.0289  0.0000  0.0000  0.0000  0.0000  0.0000  0.0000  0.0000 </r>
        <r>  0.0000  0.0000  0.3099  0.0000  0.0000  0.0000  0.0000  0.0000  0.0000 </r>
       </set>
       <set comment="band 11">
        <r>  0.1019  0.1077  0.0000  0.0000  0.0000  0.0000  0.0000  0.0000  0.0000 </r>
        <r>  0.1019  0.1077  0.0000  0.0000  0.0000  0.0000  0.0000  0.0000  0.0000 </r>
        <r>  0.0000  0.0000  0.0000  0.0019  0.0000  0.0000  0.0000  0.0000  0.0000 </r>
       </set>
       <set comment="band 12">
        <r>  0.0307  0.3151  0.0000  0.0000  0.0000  0.0000  0.0000  0.0000  0.0000 </r>
        <r>  0.0307  0.3151  0.0000  0.0000  0.0000  0.0000  0.0000  0.0000  0.0000 </r>
        <r>  0.0000  0.0000  0.0015  0.0000  0.0000  0.0000  0.0000  0.0000  0.0000 </r>
       </set>
       <set comment="band 13">
        <r>  0.0000  0.0000  0.1584  0.0567  0.0000  0.0000  0.0000  0.0000  0.0000 </r>
        <r>  0.0000  0.0000  0.1584  0.0567  0.0000  0.0000  0.0000  0.0000  0.0000 </r>
        <r>  0.0486  0.0923  0.0000  0.0000  0.0000  0.0000  0.0000  0.0000  0.0000 </r>
       </set>
       <set comment="band 14">
        <r>  0.0000  0.0000  0.0431  0.5898  0.0000  0.0000  0.0000  0.0000  0.0000 </r>
        <r>  0.0000  0.0000  0.0431  0.5898  0.0000  0.0000  0.0000  0.0000  0.0000 </r>
        <r>  0.0000  0.0000  0.0000  0.0000  0.0000  0.0000  0.0000  0.0000  0.0000 </r>
       </set>
       <set comment="band 15">
        <r>  0.0000  0.0000  0.0060  0.0796  0.0000  0.0000  0.0000  0.0000  0.0000 </r>
        <r>  0.0000  0.0000  0.0060  0.0796  0.0000  0.0000  0.0000  0.0000  0.0000 </r>
        <r>  0.0277  0.0346  0.0000  0.0000  0.0000  0.0000  0.0000  0.0000  0.0000 </r>
       </set>
       <set comment="band 16">
        <r>  0.0000  0.0000  0.7735  0.0785  0.0000  0.0000  0.0000  0.0000  0.0000 </r>
        <r>  0.0000  0.0000  0.7735  0.0785  0.0000  0.0000  0.0000  0.0000  0.0000 </r>
        <r>  0.0000  0.0000  0.0000  0.0000  0.0000  0.0000  0.0000  0.0000  0.0000 </r>
       </set>
       <set comment="band 17">
        <r>  0.0000  0.0000  0.0316  0.0194  0.0000  0.0000  0.0000  0.0000  0.0000 </r>
        <r>  0.0000  0.0000  0.0316  0.0194  0.0000  0.0000  0.0000  0.0000  0.0000 </r>
        <r>  0.0104  0.0181  0.0000  0.0000  0.0000  0.0000  0.0000  0.0000  0.0000 </r>
       </set>
       <set comment="band 18">
        <r>  0.0150  0.1612  0.0000  0.0000  0.0000  0.0000  0.0000  0.0000  0.0000 </r>
        <r>  0.0150  0.1612  0.0000  0.0000  0.0000  0.0000  0.0000  0.0000  0.0000 </r>
        <r>  0.0000  0.0000  0.0042  0.0000  0.0000  0.0000  0.0000  0.0000  0.0000 </r>
       </set>
       <set comment="band 19">
        <r>  0.0231  0.1355  0.0000  0.0000  0.0000  0.0000  0.0000  0.0000  0.0000 </r>
        <r>  0.0231  0.1355  0.0000  0.0000  0.0000  0.0000  0.0000  0.0000  0.0000 </r>
        <r>  0.0000  0.0000  0.0000  0.0202  0.0000  0.0000  0.0000  0.0000  0.0000 </r>
       </set>
       <set comment="band 20">
        <r>  0.0332  0.0037  0.0000  0.0000  0.0000  0.0000  0.0000  0.0000  0.0000 </r>
        <r>  0.0332  0.0037  0.0000  0.0000  0.0000  0.0000  0.0000  0.0000  0.0000 </r>
        <r>  0.0000  0.0000  0.0206  0.0000  0.0000  0.0000  0.0000  0.0000  0.0000 </r>
       </set>
       <set comment="band 21">
        <r>  0.0000  0.0000  0.2836  0.0761  0.0000  0.0000  0.0000  0.0000  0.0000 </r>
        <r>  0.0000  0.0000  0.2836  0.0761  0.0000  0.0000  0.0000  0.0000  0.0000 </r>
        <r>  0.0000  0.0000  0.0000  0.0000  0.0000  0.0000  0.0000  0.0000  0.0000 </r>
       </set>
       <set comment="band 22">
        <r>  0.0245  0.0051  0.0000  0.0000  0.0000  0.0000  0.0000  0.0000  0.0000 </r>
        <r>  0.0245  0.0051  0.0000  0.0000  0.0000  0.0000  0.0000  0.0000  0.0000 </r>
        <r>  0.0000  0.0000  0.0000  0.0676  0.0000  0.0000  0.0000  0.0000  0.0000 </r>
       </set>
       <set comment="band 23">
        <r>  0.0000  0.0000  0.0651  0.0693  0.0000  0.0000  0.0000  0.0000  0.0000 </r>
        <r>  0.0000  0.0000  0.0651  0.0693  0.0000  0.0000  0.0000  0.0000  0.0000 </r>
        <r>  0.0644  0.0363  0.0000  0.0000  0.0000  0.0000  0.0000  0.0000  0.0000 </r>
       </set>
       <set comment="band 24">
        <r>  0.0447  0.5066  0.0000  0.0000  0.0000  0.0000  0.0000  0.0000  0.0000 </r>
        <r>  0.0447  0.5066  0.0000  0.0000  0.0000  0.0000  0.0000  0.0000  0.0000 </r>
        <r>  0.0000  0.0000  0.0023  0.0000  0.0000  0.0000  0.0000  0.0000  0.0000 </r>
       </set>
      </set>
      <set comment="kpoint 72">
       <set comment="band 1">
        <r>  0.4546  0.0000  0.0000  0.0000  0.0000  0.0000  0.0000  0.0000  0.0000 </r>
        <r>  0.5340  0.0000  0.0000  0.0000  0.0000  0.0000  0.0000  0.0000  0.0000 </r>
        <r>  0.0000  0.0000  0.0001  0.0001  0.0000  0.0000  0.0000  0.0000  0.0000 </r>
       </set>
       <set comment="band 2">
        <r>  0.5340  0.0000  0.0000  0.0000  0.0000  0.0000  0.0000  0.0000  0.0000 </r>
        <r>  0.4546  0.0000  0.0000  0.0000  0.0000  0.0000  0.0000  0.0000  0.0000 </r>
        <r>  0.0000  0.0000  0.0001  0.0001  0.0000  0.0000  0.0000  0.0000  0.0000 </r>
       </set>
       <set comment="band 3">
        <r>  0.0000  0.0000  0.0012  0.0012  0.0000  0.0000  0.0000  0.0000  0.0000 </r>
        <r>  0.0000  0.0000  0.0012  0.0012  0.0000  0.0000  0.0000  0.0000  0.0000 </r>
        <r>  0.7724  0.0000  0.0000  0.0000  0.0000  0.0000  0.0000  0.0000  0.0000 </r>
       </set>
       <set comment="band 4">
        <r>  0.0000  0.0000  0.0136  0.0136  0.0000  0.0000  0.0000  0.0000  0.0000 </r>
        <r>  0.0000  0.0000  0.0136  0.0136  0.0000  0.0000  0.0000  0.0000  0.0000 </r>
        <r>  0.0000  0.5020  0.0000  0.0000  0.0000  0.0000  0.0000  0.0000  0.0000 </r>
       </set>
       <set comment="band 5">
        <r>  0.0168  0.0105  0.0000  0.0000  0.0000  0.0000  0.0000  0.0000  0.0000 </r>
        <r>  0.0167  0.0105  0.0000  0.0000  0.0000  0.0000  0.0000  0.0000  0.0000 </r>
        <r>  0.0000  0.0000  0.2832  0.2837  0.0000  0.0000  0.0000  0.0000  0.0000 </r>
       </set>
       <set comment="band 6">
        <r>  0.0167  0.0105  0.0000  0.0000  0.0000  0.0000  0.0000  0.0000  0.0000 </r>
        <r>  0.0168  0.0105  0.0000  0.0000  0.0000  0.0000  0.0000  0.0000  0.0000 </r>
        <r>  0.0000  0.0000  0.2837  0.2832  0.0000  0.0000  0.0000  0.0000  0.0000 </r>
       </set>
       <set comment="band 7">
        <r>  0.0000  0.0000  0.0206  0.0206  0.0000  0.0000  0.0000  0.0000  0.0000 </r>
        <r>  0.0000  0.0000  0.0206  0.0206  0.0000  0.0000  0.0000  0.0000  0.0000 </r>
        <r>  0.0000  0.2339  0.0000  0.0000  0.0000  0.0000  0.0000  0.0000  0.0000 </r>
       </set>
       <set comment="band 8">
        <r>  0.0000  0.0000  0.0906  0.0906  0.0000  0.0000  0.0000  0.0000  0.0000 </r>
        <r>  0.0000  0.0000  0.0906  0.0906  0.0000  0.0000  0.0000  0.0000  0.0000 </r>
        <r>  0.0934  0.0000  0.0000  0.0000  0.0000  0.0000  0.0000  0.0000  0.0000 </r>
       </set>
       <set comment="band 9">
        <r>  0.0659  0.0653  0.0000  0.0000  0.0000  0.0000  0.0000  0.0000  0.0000 </r>
        <r>  0.0652  0.0660  0.0000  0.0000  0.0000  0.0000  0.0000  0.0000  0.0000 </r>
        <r>  0.0000  0.0000  0.1452  0.1486  0.0000  0.0000  0.0000  0.0000  0.0000 </r>
       </set>
       <set comment="band 10">
        <r>  0.0652  0.0661  0.0000  0.0000  0.0000  0.0000  0.0000  0.0000  0.0000 </r>
        <r>  0.0659  0.0653  0.0000  0.0000  0.0000  0.0000  0.0000  0.0000  0.0000 </r>
        <r>  0.0000  0.0000  0.1486  0.1452  0.0000  0.0000  0.0000  0.0000  0.0000 </r>
       </set>
       <set comment="band 11">
        <r>  0.0637  0.2013  0.0000  0.0000  0.0000  0.0000  0.0000  0.0000  0.0000 </r>
        <r>  0.0614  0.2086  0.0000  0.0000  0.0000  0.0000  0.0000  0.0000  0.0000 </r>
        <r>  0.0000  0.0000  0.0010  0.0011  0.0000  0.0000  0.0000  0.0000  0.0000 </r>
       </set>
       <set comment="band 12">
        <r>  0.0614  0.2085  0.0000  0.0000  0.0000  0.0000  0.0000  0.0000  0.0000 </r>
        <r>  0.0637  0.2012  0.0000  0.0000  0.0000  0.0000  0.0000  0.0000  0.0000 </r>
        <r>  0.0000  0.0000  0.0011  0.0010  0.0000  0.0000  0.0000  0.0000  0.0000 </r>
       </set>
       <set comment="band 13">
        <r>  0.0000  0.0000  0.1447  0.1447  0.0000  0.0000  0.0000  0.0000  0.0000 </r>
        <r>  0.0000  0.0000  0.1447  0.1447  0.0000  0.0000  0.0000  0.0000  0.0000 </r>
        <r>  0.0000  0.1463  0.0000  0.0000  0.0000  0.0000  0.0000  0.0000  0.0000 </r>
       </set>
       <set comment="band 14">
        <r>  0.0000  0.0000  0.3166  0.3166  0.0000  0.0000  0.0000  0.0000  0.0000 </r>
        <r>  0.0000  0.0000  0.3166  0.3166  0.0000  0.0000  0.0000  0.0000  0.0000 </r>
        <r>  0.0000  0.0000  0.0000  0.0000  0.0000  0.0000  0.0000  0.0000  0.0000 </r>
       </set>
       <set comment="band 15">
        <r>  0.0000  0.0000  0.0156  0.0156  0.0000  0.0000  0.0000  0.0000  0.0000 </r>
        <r>  0.0000  0.0000  0.0156  0.0156  0.0000  0.0000  0.0000  0.0000  0.0000 </r>
        <r>  0.0691  0.0000  0.0000  0.0000  0.0000  0.0000  0.0000  0.0000  0.0000 </r>
       </set>
       <set comment="band 16">
        <r>  0.0000  0.0000  0.4074  0.4074  0.0000  0.0000  0.0000  0.0000  0.0000 </r>
        <r>  0.0000  0.0000  0.4074  0.4074  0.0000  0.0000  0.0000  0.0000  0.0000 </r>
        <r>  0.0000  0.0000  0.0000  0.0000  0.0000  0.0000  0.0000  0.0000  0.0000 </r>
       </set>
       <set comment="band 17">
        <r>  0.0000  0.0000  0.0168  0.0168  0.0000  0.0000  0.0000  0.0000  0.0000 </r>
        <r>  0.0000  0.0000  0.0168  0.0168  0.0000  0.0000  0.0000  0.0000  0.0000 </r>
        <r>  0.0000  0.0388  0.0000  0.0000  0.0000  0.0000  0.0000  0.0000  0.0000 </r>
       </set>
       <set comment="band 18">
        <r>  0.0465  0.0330  0.0000  0.0000  0.0000  0.0000  0.0000  0.0000  0.0000 </r>
        <r>  0.0315  0.0486  0.0000  0.0000  0.0000  0.0000  0.0000  0.0000  0.0000 </r>
        <r>  0.0000  0.0000  0.0074  0.0176  0.0000  0.0000  0.0000  0.0000  0.0000 </r>
       </set>
       <set comment="band 19">
        <r>  0.0315  0.0488  0.0000  0.0000  0.0000  0.0000  0.0000  0.0000  0.0000 </r>
        <r>  0.0465  0.0331  0.0000  0.0000  0.0000  0.0000  0.0000  0.0000  0.0000 </r>
        <r>  0.0000  0.0000  0.0176  0.0074  0.0000  0.0000  0.0000  0.0000  0.0000 </r>
       </set>
       <set comment="band 20">
        <r>  0.0367  0.0455  0.0000  0.0000  0.0000  0.0000  0.0000  0.0000  0.0000 </r>
        <r>  0.0336  0.0496  0.0000  0.0000  0.0000  0.0000  0.0000  0.0000  0.0000 </r>
        <r>  0.0000  0.0000  0.0092  0.0111  0.0000  0.0000  0.0000  0.0000  0.0000 </r>
       </set>
       <set comment="band 21">
        <r>  0.0336  0.0499  0.0000  0.0000  0.0000  0.0000  0.0000  0.0000  0.0000 </r>
        <r>  0.0367  0.0457  0.0000  0.0000  0.0000  0.0000  0.0000  0.0000  0.0000 </r>
        <r>  0.0000  0.0000  0.0111  0.0092  0.0000  0.0000  0.0000  0.0000  0.0000 </r>
       </set>
       <set comment="band 22">
        <r>  0.0000  0.0000  0.0829  0.0829  0.0000  0.0000  0.0000  0.0000  0.0000 </r>
        <r>  0.0000  0.0000  0.0829  0.0829  0.0000  0.0000  0.0000  0.0000  0.0000 </r>
        <r>  0.0861  0.0000  0.0000  0.0000  0.0000  0.0000  0.0000  0.0000  0.0000 </r>
       </set>
       <set comment="band 23">
        <r>  0.0000  0.0000  0.2808  0.2808  0.0000  0.0000  0.0000  0.0000  0.0000 </r>
        <r>  0.0000  0.0000  0.2808  0.2808  0.0000  0.0000  0.0000  0.0000  0.0000 </r>
        <r>  0.0000  0.0000  0.0000  0.0000  0.0000  0.0000  0.0000  0.0000  0.0000 </r>
       </set>
       <set comment="band 24">
        <r>  0.0003  0.5762  0.0000  0.0000  0.0000  0.0000  0.0000  0.0000  0.0000 </r>
        <r>  0.0002  1.0261  0.0000  0.0000  0.0000  0.0000  0.0000  0.0000  0.0000 </r>
        <r>  0.0000  0.0000  0.0027  0.0107  0.0000  0.0000  0.0000  0.0000  0.0000 </r>
       </set>
      </set>
     </set>
    </set>
   </array>
  </projected>
 </calculation>
 <structure name="finalpos" >
  <crystal>
   <varray name="basis" >
    <v>      -0.00000000       2.31290929       2.31290929 </v>
    <v>       2.31290929       0.00000000       2.31290929 </v>
    <v>       2.31290929       2.31290929       0.00000000 </v>
   </varray>
   <i name="volume">     24.74604480 </i>
   <varray name="rec_basis" >
    <v>      -0.21617796       0.21617796       0.21617796 </v>
    <v>       0.21617796      -0.21617796       0.21617796 </v>
    <v>       0.21617796       0.21617796      -0.21617796 </v>
   </varray>
  </crystal>
  <varray name="positions" >
   <v>       0.75000000       0.75000000       0.75000000 </v>
   <v>       0.25000000       0.25000000       0.25000000 </v>
   <v>      -0.00000000       0.00000000       0.00000000 </v>
  </varray>
 </structure>
</modeling>
