unknown system                          
           1
     0.000000    2.329421    2.329421
     2.329421    0.000000    2.329421
     2.329421    2.329421    0.000000
   Li   O 
   2   1
Direct configuration=     1
   0.75000000  0.75000000  0.75000000
   0.25000000  0.25000000  0.25000000
   0.00000000  0.00000000  0.00000000
unknown system                          
           1
    -0.000000    2.319857    2.319857
     2.319857    0.000000    2.319857
     2.319857    2.319857    0.000000
   Li   O 
   2   1
Direct configuration=     2
   0.75000000  0.75000000  0.75000000
   0.25000000  0.25000000  0.25000000
  -0.00000000  0.00000000  0.00000000
unknown system                          
           1
    -0.000000    2.312909    2.312909
     2.312909    0.000000    2.312909
     2.312909    2.312909    0.000000
   Li   O 
   2   1
Direct configuration=     3
   0.75000000  0.75000000  0.75000000
   0.25000000  0.25000000  0.25000000
  -0.00000000  0.00000000  0.00000000
