       N       E                     dE             d eps       ncg     rms          rms(c)
DAV:   1     0.625592525577E+03    0.62559E+03   -0.36924E+04  9984   0.153E+03
DAV:   2    -0.424189362554E+02   -0.66801E+03   -0.63572E+03 11648   0.397E+02
DAV:   3    -0.102915553245E+03   -0.60497E+02   -0.60191E+02 13952   0.113E+02
DAV:   4    -0.108540312372E+03   -0.56248E+01   -0.56009E+01 17736   0.288E+01
DAV:   5    -0.109073939131E+03   -0.53363E+00   -0.53350E+00 14080   0.587E+00    0.365E+01
RMM:   6    -0.991906948003E+02    0.98832E+01   -0.42612E+01 10972   0.243E+01    0.146E+01
RMM:   7    -0.100307197389E+03   -0.11165E+01   -0.46628E+00 14414   0.859E+00    0.771E+00
RMM:   8    -0.100525157306E+03   -0.21796E+00   -0.10853E+00 16435   0.451E+00    0.386E+00
RMM:   9    -0.100596359029E+03   -0.71202E-01   -0.40278E-01 16400   0.324E+00    0.971E-01
RMM:  10    -0.100631588840E+03   -0.35230E-01   -0.28317E-01 18633   0.191E+00    0.380E-01
RMM:  11    -0.100649074247E+03   -0.17485E-01   -0.13825E-01 19214   0.121E+00    0.315E-01
RMM:  12    -0.100656196018E+03   -0.71218E-02   -0.52120E-02 19370   0.750E-01    0.213E-01
RMM:  13    -0.100658694296E+03   -0.24983E-02   -0.19177E-02 18858   0.517E-01    0.105E-01
RMM:  14    -0.100659996461E+03   -0.13022E-02   -0.10829E-02 19052   0.373E-01    0.311E-02
RMM:  15    -0.100660539377E+03   -0.54292E-03   -0.50634E-03 18733   0.234E-01    0.341E-02
RMM:  16    -0.100660763223E+03   -0.22385E-03   -0.22150E-03 18312   0.155E-01    0.263E-02
RMM:  17    -0.100660840723E+03   -0.77500E-04   -0.87275E-04 18015   0.110E-01    0.135E-02
RMM:  18    -0.100660891622E+03   -0.50899E-04   -0.51576E-04 17811   0.752E-02    0.917E-03
RMM:  19    -0.100660910179E+03   -0.18557E-04   -0.19110E-04 17267   0.521E-02    0.753E-03
RMM:  20    -0.100660911418E+03   -0.12387E-05   -0.47274E-05 12549   0.370E-02
   1 F= -.10066091E+03 E0= -.10066091E+03  d E =0.000000E+00  mag=    -0.0000
