 running on   12 total cores
 distrk:  each k-point on   12 cores,    1 groups
 distr:  one band on    6 cores,    2 groups
 using from now: INCAR     
 vasp.6.1.2 22Jul20 (build Mar 20 2021 11:25:07) complex                        
  
 POSCAR found type information on POSCAR P O 
 POSCAR found :  2 types and      14 ions
 scaLAPACK will be used
 LDA part: xc-table for Pade appr. of Perdew
 -----------------------------------------------------------------------------
|                                                                             |
|           W    W    AA    RRRRR   N    N  II  N    N   GGGG   !!!           |
|           W    W   A  A   R    R  NN   N  II  NN   N  G    G  !!!           |
|           W    W  A    A  R    R  N N  N  II  N N  N  G       !!!           |
|           W WW W  AAAAAA  RRRRR   N  N N  II  N  N N  G  GGG   !            |
|           WW  WW  A    A  R   R   N   NN  II  N   NN  G    G                |
|           W    W  A    A  R    R  N    N  II  N    N   GGGG   !!!           |
|                                                                             |
|     The determination of the symmetry of your systems shows a strong        |
|     dependence on the tolerance parameter SYMPREC. This is often the        |
|     result of "noise" in the structural parameters (lattice vectors         |
|     and/or ionic positions). Set NWRITE=3 for more details.                 |
|                                                                             |
 -----------------------------------------------------------------------------

 generate k-points for:    7    7    7
 POSCAR, INCAR and KPOINTS ok, starting setup
 FFT: planning ...
 WAVECAR not read
 entering main loop
       N       E                     dE             d eps       ncg     rms          rms(c)
DAV:   1     0.546108610353E+03    0.54611E+03   -0.43507E+04 13400   0.143E+03
DAV:   2    -0.742662983959E+02   -0.62037E+03   -0.60438E+03 16616   0.340E+02
DAV:   3    -0.110199313287E+03   -0.35933E+02   -0.35717E+02 16136   0.878E+01
DAV:   4    -0.110732473219E+03   -0.53316E+00   -0.53109E+00 16552   0.114E+01
DAV:   5    -0.110744230613E+03   -0.11757E-01   -0.11740E-01 16240   0.162E+00    0.459E+01
DAV:   6    -0.943300831998E+02    0.16414E+02   -0.55323E+01 15128   0.351E+01    0.234E+01
DAV:   7    -0.978278790617E+02   -0.34978E+01   -0.91639E+00 15852   0.120E+01    0.680E+00
DAV:   8    -0.982263090839E+02   -0.39843E+00   -0.11670E+00 15888   0.487E+00    0.306E+00
DAV:   9    -0.982257818608E+02    0.52722E-03   -0.56789E-02 15872   0.155E+00    0.140E+00
DAV:  10    -0.982248619335E+02    0.91993E-03   -0.26695E-02 17912   0.101E+00    0.428E-01
DAV:  11    -0.982265195524E+02   -0.16576E-02   -0.44392E-03 15796   0.353E-01    0.264E-01
DAV:  12    -0.982268130691E+02   -0.29352E-03   -0.13149E-03 16944   0.210E-01    0.104E-01
DAV:  13    -0.982269021088E+02   -0.89040E-04   -0.14353E-04 15960   0.713E-02    0.403E-02
DAV:  14    -0.982269191176E+02   -0.17009E-04   -0.70737E-05 15384   0.490E-02    0.162E-02
DAV:  15    -0.982269237892E+02   -0.46716E-05   -0.86496E-06  9824   0.175E-02
   1 F= -.98226924E+02 E0= -.98226924E+02  d E =0.000000E+00  mag=    -0.0004
