 running on   24 total cores
 distrk:  each k-point on   24 cores,    1 groups
 distr:  one band on    6 cores,    4 groups
 using from now: INCAR     
 vasp.6.1.2 22Jul20 (build Mar 31 2021 18:09:49) complex                        
  
 POSCAR found type information on POSCAR LiP 
 POSCAR found :  2 types and       8 ions
 scaLAPACK will be used
 -----------------------------------------------------------------------------
|                                                                             |
|               ----> ADVICE to this user running VASP <----                  |
|                                                                             |
|     You have a (more or less) 'small supercell' and for smaller cells       |
|     it is recommended to use the reciprocal-space projection scheme!        |
|     The real-space optimization is not efficient for small cells and it     |
|     is also less accurate ...                                               |
|     Therefore, set LREAL=.FALSE. in the INCAR file.                         |
|                                                                             |
 -----------------------------------------------------------------------------

 LDA part: xc-table for Pade appr. of Perdew
 generate k-points for:    9    9    4
 POSCAR, INCAR and KPOINTS ok, starting setup
 FFT: planning ...
 WAVECAR not read
 entering main loop
       N       E                     dE             d eps       ncg     rms          rms(c)
DAV:   1     0.158327500426E+03    0.15833E+03   -0.11784E+04  9120   0.118E+03
DAV:   2     0.186172645009E+01   -0.15647E+03   -0.14770E+03  9960   0.298E+02
DAV:   3    -0.237912154532E+02   -0.25653E+02   -0.25419E+02 16496   0.698E+01
DAV:   4    -0.264077707973E+02   -0.26166E+01   -0.25981E+01 13312   0.306E+01
DAV:   5    -0.266097283173E+02   -0.20196E+00   -0.20194E+00 14600   0.668E+00    0.149E+01
RMM:   6    -0.270730495382E+02   -0.46332E+00   -0.16353E+00 11129   0.632E+00    0.755E+00
RMM:   7    -0.277786834786E+02   -0.70563E+00   -0.49839E-01 12593   0.427E+00    0.284E+00
RMM:   8    -0.278500208435E+02   -0.71337E-01   -0.39094E-01 14334   0.286E+00    0.118E+00
RMM:   9    -0.278588171141E+02   -0.87963E-02   -0.96201E-02 15159   0.169E+00    0.517E-01
RMM:  10    -0.278671076001E+02   -0.82905E-02   -0.43111E-02 15865   0.101E+00    0.268E-01
RMM:  11    -0.278692988338E+02   -0.21912E-02   -0.15901E-02 16181   0.586E-01    0.196E-01
RMM:  12    -0.278700593246E+02   -0.76049E-03   -0.59207E-03 15749   0.450E-01    0.498E-02
RMM:  13    -0.278706667879E+02   -0.60746E-03   -0.34112E-03 16250   0.275E-01    0.189E-02
RMM:  14    -0.278708800536E+02   -0.21327E-03   -0.17070E-03 15951   0.178E-01    0.225E-02
RMM:  15    -0.278709723939E+02   -0.92340E-04   -0.79340E-04 14288   0.118E-01    0.197E-02
RMM:  16    -0.278710197961E+02   -0.47402E-04   -0.41415E-04 14120   0.857E-02    0.273E-02
RMM:  17    -0.278710376060E+02   -0.17810E-04   -0.23044E-04 13830   0.708E-02    0.166E-02
RMM:  18    -0.278710524740E+02   -0.14868E-04   -0.13818E-04 12933   0.527E-02    0.146E-02
RMM:  19    -0.278710604749E+02   -0.80009E-05   -0.91114E-05 11883   0.438E-02
   1 F= -.27871060E+02 E0= -.27871060E+02  d E =0.000000E+00  mag=    -0.0001
