 running on    8 total cores
 distrk:  each k-point on    8 cores,    1 groups
 distr:  one band on    1 cores,    8 groups
 using from now: INCAR     
 vasp.6.1.2 22Jul20 (build Mar 20 2021 11:25:07) complex                        
  
 POSCAR found type information on POSCAR LiP O 
 POSCAR found :  3 types and      16 ions
 scaLAPACK will be used
 -----------------------------------------------------------------------------
|                                                                             |
|           W    W    AA    RRRRR   N    N  II  N    N   GGGG   !!!           |
|           W    W   A  A   R    R  NN   N  II  NN   N  G    G  !!!           |
|           W    W  A    A  R    R  N N  N  II  N N  N  G       !!!           |
|           W WW W  AAAAAA  RRRRR   N  N N  II  N  N N  G  GGG   !            |
|           WW  WW  A    A  R   R   N   NN  II  N   NN  G    G                |
|           W    W  A    A  R    R  N    N  II  N    N   GGGG   !!!           |
|                                                                             |
|     The value NCORE = 6 specified in the INCAR file was overwritten,        |
|     because it was not compatible with the 8 processes available:           |
|     NCORE = 1                                                               |
|     was used instead, please check that this makes sense for your           |
|     machine.                                                                |
|                                                                             |
 -----------------------------------------------------------------------------

 -----------------------------------------------------------------------------
|                                                                             |
|           W    W    AA    RRRRR   N    N  II  N    N   GGGG   !!!           |
|           W    W   A  A   R    R  NN   N  II  NN   N  G    G  !!!           |
|           W    W  A    A  R    R  N N  N  II  N N  N  G       !!!           |
|           W WW W  AAAAAA  RRRRR   N  N N  II  N  N N  G  GGG   !            |
|           WW  WW  A    A  R   R   N   NN  II  N   NN  G    G                |
|           W    W  A    A  R    R  N    N  II  N    N   GGGG   !!!           |
|                                                                             |
|     For optimal performance we recommend to set                             |
|       NCORE = 4 - approx SQRT(number of cores).                             |
|     NCORE specifies how many cores store one orbital (NPAR=cpu/NCORE).      |
|     This setting can greatly improve the performance of VASP for DFT.       |
|     The default, NCORE=1 might be grossly inefficient on modern             |
|     multi-core architectures or massively parallel machines. Do your        |
|     own testing!!!!                                                         |
|     Unfortunately you need to use the default for GW and RPA                |
|     calculations (for HF NCORE is supported but not extensively tested      |
|     yet).                                                                   |
|                                                                             |
 -----------------------------------------------------------------------------

 LDA part: xc-table for Pade appr. of Perdew
 -----------------------------------------------------------------------------
|                                                                             |
|           W    W    AA    RRRRR   N    N  II  N    N   GGGG   !!!           |
|           W    W   A  A   R    R  NN   N  II  NN   N  G    G  !!!           |
|           W    W  A    A  R    R  N N  N  II  N N  N  G       !!!           |
|           W WW W  AAAAAA  RRRRR   N  N N  II  N  N N  G  GGG   !            |
|           WW  WW  A    A  R   R   N   NN  II  N   NN  G    G                |
|           W    W  A    A  R    R  N    N  II  N    N   GGGG   !!!           |
|                                                                             |
|     The determination of the symmetry of your systems shows a strong        |
|     dependence on the tolerance parameter SYMPREC. This is often the        |
|     result of "noise" in the structural parameters (lattice vectors         |
|     and/or ionic positions). Set NWRITE=3 for more details.                 |
|                                                                             |
 -----------------------------------------------------------------------------

 generate k-points for:    6    6    5
 POSCAR, INCAR and KPOINTS ok, starting setup
 FFT: planning ...
 WAVECAR not read
 entering main loop
       N       E                     dE             d eps       ncg     rms          rms(c)
DAV:   1     0.596780945661E+03    0.59678E+03   -0.36164E+04 10752   0.141E+03
DAV:   2    -0.441404828384E+02   -0.64092E+03   -0.60478E+03 12376   0.369E+02
DAV:   3    -0.102877440187E+03   -0.58737E+02   -0.58383E+02 14960   0.105E+02
DAV:   4    -0.108309706088E+03   -0.54323E+01   -0.53990E+01 18528   0.263E+01
DAV:   5    -0.108790230958E+03   -0.48052E+00   -0.48034E+00 14976   0.539E+00    0.352E+01
RMM:   6    -0.990900595932E+02    0.97002E+01   -0.38592E+01 11702   0.217E+01    0.137E+01
RMM:   7    -0.100173039821E+03   -0.10830E+01   -0.35860E+00 15405   0.730E+00    0.738E+00
RMM:   8    -0.100356582912E+03   -0.18354E+00   -0.85490E-01 17103   0.384E+00    0.378E+00
RMM:   9    -0.100431634045E+03   -0.75051E-01   -0.30825E-01 17300   0.280E+00    0.752E-01
RMM:  10    -0.100458200831E+03   -0.26567E-01   -0.21533E-01 19813   0.158E+00    0.349E-01
RMM:  11    -0.100472339829E+03   -0.14139E-01   -0.95261E-02 20325   0.975E-01    0.266E-01
RMM:  12    -0.100478286022E+03   -0.59462E-02   -0.38304E-02 20692   0.608E-01    0.158E-01
RMM:  13    -0.100480407361E+03   -0.21213E-02   -0.14889E-02 20229   0.405E-01    0.706E-02
RMM:  14    -0.100481336940E+03   -0.92958E-03   -0.74696E-03 20687   0.280E-01    0.290E-02
RMM:  15    -0.100481694856E+03   -0.35792E-03   -0.32187E-03 20284   0.174E-01    0.238E-02
RMM:  16    -0.100481855170E+03   -0.16031E-03   -0.14500E-03 19899   0.114E-01    0.151E-02
RMM:  17    -0.100481918198E+03   -0.63027E-04   -0.57096E-04 19426   0.773E-02    0.977E-03
RMM:  18    -0.100481947552E+03   -0.29355E-04   -0.27752E-04 18726   0.518E-02    0.878E-03
RMM:  19    -0.100481956120E+03   -0.85671E-05   -0.91616E-05 16446   0.360E-02
   1 F= -.10048196E+03 E0= -.10048196E+03  d E =0.000000E+00  mag=    -0.0001
