 vasp.6.1.2 22Jul20 (build Dec 05 2020 14:50:36) complex                        
  
 executed on         CrayXC-Intel date 2021.02.03  12:09:18
 running on   48 total cores
 distrk:  each k-point on   48 cores,    1 groups
 distr:  one band on NCORE=   6 cores,    8 groups


--------------------------------------------------------------------------------------------------------


 INCAR:
 POTCAR:    PAW_PBE Li_sv 10Sep2004               
 POTCAR:    PAW_PBE P 06Sep2000                   
 POTCAR:    PAW_PBE Li_sv 10Sep2004               
   VRHFIN =Li: 1s2s2p                                                                               
   LEXCH  = PE                                                                                      
   EATOM  =   202.7858 eV,   14.9043 Ry                                                             
                                                                                                    
   TITEL  = PAW_PBE Li_sv 10Sep2004                                                                 
   LULTRA =        F    use ultrasoft PP ?                                                          
   IUNSCR =        0    unscreen: 0-lin 1-nonlin 2-no                                               
   RPACOR =    0.000    partial core radius                                                         
   POMASS =    7.010; ZVAL   =    3.000    mass and valenz                                          
   RCORE  =    1.700    outmost cutoff radius                                                       
   RWIGS  =    2.050; RWIGS  =    1.085    wigner-seitz radius (au A)                               
   ENMAX  =  499.034; ENMIN  =  374.276 eV                                                          
   ICORE  =        2    local potential                                                             
   LCOR   =        T    correct aug charges                                                         
   LPAW   =        T    paw PP                                                                      
   EAUG   =  628.945                                                                                
   RMAX   =    1.732    core radius for proj-oper                                                   
   RAUG   =    1.300    factor for augmentation sphere                                              
   RDEP   =    1.728    radius for radial grids                                                     
   RDEPT  =    1.329    core radius for aug-charge                                                  
                                                                                                    
   Atomic configuration                                                                             
    4 entries                                                                                       
     n  l   j            E        occ.                                                              
     1  0  0.50       -51.8549   2.0000                                                             
     2  0  0.50        -2.8742   1.0000                                                             
     2  1  0.50        -1.3606   0.0000                                                             
     3  2  1.50        -1.3606   0.0000                                                             
   Description                                                                                      
     l       E           TYP  RCUT    TYP  RCUT                                                     
     0    -51.8548813     23  1.400                                                                 
     0     -2.8742052     23  1.700                                                                 
     1     -1.3605826     23  1.400                                                                 
     2     -1.3605826     23  1.400                                                                 
  local pseudopotential read in
  atomic valenz-charges read in
  non local Contribution for L=           0  read in
    real space projection operators read in
  non local Contribution for L=           0  read in
    real space projection operators read in
  non local Contribution for L=           1  read in
    real space projection operators read in
    PAW grid and wavefunctions read in
 
   number of l-projection  operators is LMAX  =           3
   number of lm-projection operators is LMMAX =           5
 
 POTCAR:    PAW_PBE P 06Sep2000                   
   VRHFIN =P : s2p3                                                                                 
   LEXCH  = PE                                                                                      
   EATOM  =   176.0430 eV,   12.9388 Ry                                                             
                                                                                                    
   TITEL  = PAW_PBE P 06Sep2000                                                                     
   LULTRA =        F    use ultrasoft PP ?                                                          
   IUNSCR =        1    unscreen: 0-lin 1-nonlin 2-no                                               
   RPACOR =    1.500    partial core radius                                                         
   POMASS =   30.974; ZVAL   =    5.000    mass and valenz                                          
   RCORE  =    1.900    outmost cutoff radius                                                       
   RWIGS  =    2.330; RWIGS  =    1.233    wigner-seitz radius (au A)                               
   ENMAX  =  255.040; ENMIN  =  191.280 eV                                                          
   ICORE  =        2    local potential                                                             
   LCOR   =        T    correct aug charges                                                         
   LPAW   =        T    paw PP                                                                      
   EAUG   =  342.924                                                                                
   DEXC   =    0.000                                                                                
   RMAX   =    1.935    core radius for proj-oper                                                   
   RAUG   =    1.300    factor for augmentation sphere                                              
   RDEP   =    1.931    radius for radial grids                                                     
   RDEPT  =    1.794    core radius for aug-charge                                                  
                                                                                                    
   Atomic configuration                                                                             
    6 entries                                                                                       
     n  l   j            E        occ.                                                              
     1  0  0.50     -2084.0982   2.0000                                                             
     2  0  0.50      -173.9859   2.0000                                                             
     2  1  1.50      -124.4865   6.0000                                                             
     3  0  0.50       -13.9692   2.0000                                                             
     3  1  0.50        -5.5067   3.0000                                                             
     3  2  1.50        -5.4423   0.0000                                                             
   Description                                                                                      
     l       E           TYP  RCUT    TYP  RCUT                                                     
     0    -13.9691527     23  1.900                                                                 
     0    -11.7794650     23  1.900                                                                 
     1     -5.5066937     23  1.900                                                                 
     1     -0.2556953     23  1.900                                                                 
     2     -5.4423304     23  1.900                                                                 
  local pseudopotential read in
  partial core-charges read in
  partial kinetic energy density read in
  atomic valenz-charges read in
  non local Contribution for L=           0  read in
    real space projection operators read in
  non local Contribution for L=           0  read in
    real space projection operators read in
  non local Contribution for L=           1  read in
    real space projection operators read in
  non local Contribution for L=           1  read in
    real space projection operators read in
    PAW grid and wavefunctions read in
 
   number of l-projection  operators is LMAX  =           4
   number of lm-projection operators is LMMAX =           8
 
 Optimization of the real space projectors (new method)

 maximal supplied QI-value         = 22.11
 optimisation between [QCUT,QGAM] = [ 11.50, 23.22] = [ 37.02,150.92] Ry 
 Optimized for a Real-space Cutoff    1.08 Angstroem

   l    n(q)    QCUT    max X(q) W(low)/X(q) W(high)/X(q)  e(spline) 
   0      7    11.497    10.506    0.36E-04    0.62E-04    0.14E-07
   0      7    11.497     8.367    0.65E-04    0.14E-03    0.28E-07
   1      7    11.497     8.983    0.21E-03    0.43E-03    0.90E-07
 Optimization of the real space projectors (new method)

 maximal supplied QI-value         = 19.84
 optimisation between [QCUT,QGAM] = [ 11.51, 23.22] = [ 37.09,150.92] Ry 
 Optimized for a Real-space Cutoff    1.21 Angstroem

   l    n(q)    QCUT    max X(q) W(low)/X(q) W(high)/X(q)  e(spline) 
   0      8    11.508   160.924    0.96E-04    0.17E-03    0.52E-07
   0      8    11.508   130.086    0.95E-04    0.17E-03    0.51E-07
   1      8    11.508    74.434    0.16E-03    0.74E-04    0.91E-07
   1      8    11.508    49.120    0.16E-03    0.71E-04    0.89E-07
  PAW_PBE Li_sv 10Sep2004               :
 energy of atom  1       EATOM= -202.7858
 kinetic energy error for atom=    0.0130 (will be added to EATOM!!)
  PAW_PBE P 06Sep2000                   :
 energy of atom  2       EATOM= -176.0430
 kinetic energy error for atom=    0.0011 (will be added to EATOM!!)
 
 
 POSCAR: Li12 P28
  positions in direct lattice
  No initial velocities read in
 exchange correlation table for  LEXCH =        8
   RHO(1)=    0.500       N(1)  =     2000
   RHO(2)=  100.500       N(2)  =     4000
 


--------------------------------------------------------------------------------------------------------


 ion  position               nearest neighbor table
   1  0.851  0.308  0.816-  34 2.64  37 2.65  31 2.71
   2  0.351  0.192  0.184-  33 2.64  38 2.65  32 2.71
   3  0.149  0.808  0.684-  36 2.64  39 2.65  29 2.71
   4  0.649  0.692  0.316-  35 2.64  40 2.65  30 2.71
   5  0.569  0.026  0.015-  40 2.53  34 2.56  29 2.58  20 2.71
   6  0.069  0.474  0.985-  39 2.53  33 2.56  30 2.58  19 2.71
   7  0.431  0.526  0.485-  38 2.53  36 2.56  31 2.58  18 2.71
   8  0.931  0.974  0.515-  37 2.53  35 2.56  32 2.58  17 2.71
   9  0.402  0.301  0.692-  31 2.60  16 2.61  18 2.64  25 2.66
  10  0.902  0.199  0.308-  32 2.60  15 2.61  17 2.64  26 2.66
  11  0.598  0.801  0.808-  29 2.60  14 2.61  20 2.64  27 2.66
  12  0.098  0.699  0.192-  30 2.60  13 2.61  19 2.64  28 2.66
  13  0.281  0.875  0.319-  32 2.18  36 2.19  40 2.19  12 2.61
  14  0.781  0.625  0.681-  31 2.18  35 2.19  39 2.19  11 2.61
  15  0.719  0.375  0.181-  30 2.18  34 2.19  38 2.19  10 2.61
  16  0.219  0.125  0.819-  29 2.18  33 2.19  37 2.19   9 2.61
  17  0.638  0.049  0.387-  40 2.15  25 2.26  21 2.29  10 2.64   8 2.71
  18  0.138  0.451  0.613-  39 2.15  26 2.26  22 2.29   9 2.64   7 2.71
  19  0.362  0.549  0.113-  38 2.15  27 2.26  23 2.29  12 2.64   6 2.71
  20  0.862  0.951  0.887-  37 2.15  28 2.26  24 2.29  11 2.64   5 2.71
  21  0.534  0.944  0.565-  36 2.15  25 2.25  17 2.29
  22  0.034  0.556  0.435-  35 2.15  26 2.25  18 2.29
  23  0.466  0.444  0.935-  34 2.15  27 2.25  19 2.29
  24  0.966  0.056  0.065-  33 2.15  28 2.25  20 2.29
  25  0.406  0.135  0.494-  32 2.16  21 2.25  17 2.26   9 2.66
  26  0.906  0.365  0.506-  31 2.16  22 2.25  18 2.26  10 2.66
  27  0.594  0.635  0.006-  30 2.16  23 2.25  19 2.26  11 2.66
  28  0.094  0.865  0.994-  29 2.16  24 2.25  20 2.26  12 2.66
  29  0.316  0.927  0.881-  28 2.16  16 2.18   5 2.58  11 2.60   3 2.71
  30  0.816  0.573  0.119-  27 2.16  15 2.18   6 2.58  12 2.60   4 2.71
  31  0.684  0.427  0.619-  26 2.16  14 2.18   7 2.58   9 2.60   1 2.71
  32  0.184  0.073  0.381-  25 2.16  13 2.18   8 2.58  10 2.60   2 2.71
  33  0.129  0.218  0.995-  24 2.15  16 2.19   6 2.56   2 2.64
  34  0.629  0.282  0.005-  23 2.15  15 2.19   5 2.56   1 2.64
  35  0.871  0.718  0.505-  22 2.15  14 2.19   8 2.56   4 2.64
  36  0.371  0.782  0.495-  21 2.15  13 2.19   7 2.56   3 2.64
  37  0.966  0.071  0.734-  20 2.15  16 2.19   8 2.53   1 2.65
  38  0.466  0.429  0.266-  19 2.15  15 2.19   7 2.53   2 2.65
  39  0.034  0.571  0.766-  18 2.15  14 2.19   6 2.53   3 2.65
  40  0.534  0.929  0.234-  17 2.15  13 2.19   5 2.53   4 2.65
 
  LATTYP: Found a simple orthorhombic cell.
 ALAT       =     7.6286820000
 B/A-ratio  =     1.2909012330
 C/A-ratio  =     1.3891324871
  
  Lattice vectors:
  
 A1 = (   7.6286820000,   0.0000000000,   0.0000000000)
 A2 = (   0.0000000000,   9.8478750000,   0.0000000000)
 A3 = (   0.0000000000,   0.0000000000,  10.5972500000)


Analysis of symmetry for initial positions (statically):
=====================================================================
 Subroutine PRICEL returns:
 Original cell was already a primitive cell.
 

 Routine SETGRP: Setting up the symmetry group for a 
 simple orthorhombic supercell.


 Subroutine GETGRP returns: Found  4 space group operations
 (whereof  1 operations were pure point group operations)
 out of a pool of  8 trial point group operations.


The static configuration has the point symmetry C_1 .
 The point group associated with its full space group is D_2 .


Analysis of symmetry for dynamics (positions and initial velocities):
=====================================================================
 Subroutine PRICEL returns:
 Original cell was already a primitive cell.
 

 Routine SETGRP: Setting up the symmetry group for a 
 simple orthorhombic supercell.


 Subroutine GETGRP returns: Found  4 space group operations
 (whereof  1 operations were pure point group operations)
 out of a pool of  8 trial point group operations.


The dynamic configuration has the point symmetry C_1 .
 The point group associated with its full space group is D_2 .


Analysis of structural, dynamic, and magnetic symmetry:
=====================================================================
 Subroutine PRICEL returns:
 Original cell was already a primitive cell.
 

 Routine SETGRP: Setting up the symmetry group for a 
 simple orthorhombic supercell.


 Subroutine GETGRP returns: Found  4 space group operations
 (whereof  1 operations were pure point group operations)
 out of a pool of  8 trial point group operations.


The magnetic configuration has the point symmetry C_1 .
 The point group associated with its full space group is D_2 .


 Subroutine INISYM returns: Found  4 space group operations
 (whereof  1 operations are pure point group operations),
 and found     1 'primitive' translations


----------------------------------------------------------------------------------------

                                     Primitive cell                                     

  volume of cell :     796.1323

  direct lattice vectors                    reciprocal lattice vectors
     7.628682000  0.000000000  0.000000000     0.131084242  0.000000000  0.000000000
     0.000000000  9.847875000  0.000000000     0.000000000  0.101544750  0.000000000
     0.000000000  0.000000000 10.597250000     0.000000000  0.000000000  0.094364104

  length of vectors
     7.628682000  9.847875000 10.597250000     0.131084242  0.101544750  0.094364104

  position of ions in fractional coordinates (direct lattice)
     0.850532000  0.307848000  0.816050000
     0.350532000  0.192152000  0.183950000
     0.149468000  0.807848000  0.683950000
     0.649468000  0.692152000  0.316050000
     0.568949000  0.025950000  0.014795000
     0.068949000  0.474050000  0.985205000
     0.431051000  0.525950000  0.485205000
     0.931051000  0.974050000  0.514795000
     0.402238000  0.301371000  0.692124000
     0.902238000  0.198629000  0.307876000
     0.597762000  0.801371000  0.807876000
     0.097762000  0.698629000  0.192124000
     0.280768000  0.875491000  0.318848000
     0.780768000  0.624509000  0.681152000
     0.719232000  0.375491000  0.181152000
     0.219232000  0.124509000  0.818848000
     0.637646000  0.048522000  0.387402000
     0.137646000  0.451478000  0.612598000
     0.362354000  0.548522000  0.112598000
     0.862354000  0.951478000  0.887402000
     0.533797000  0.943528000  0.565132000
     0.033797000  0.556472000  0.434868000
     0.466203000  0.443528000  0.934868000
     0.966203000  0.056472000  0.065132000
     0.406053000  0.134841000  0.494288000
     0.906053000  0.365159000  0.505712000
     0.593947000  0.634841000  0.005712000
     0.093947000  0.865159000  0.994288000
     0.316265000  0.927027000  0.881290000
     0.816265000  0.572973000  0.118710000
     0.683735000  0.427027000  0.618710000
     0.183735000  0.072973000  0.381290000
     0.128725000  0.218031000  0.994617000
     0.628725000  0.281969000  0.005383000
     0.871275000  0.718031000  0.505383000
     0.371275000  0.781969000  0.494617000
     0.966493000  0.070503000  0.734192000
     0.466493000  0.429497000  0.265808000
     0.033507000  0.570503000  0.765808000
     0.533507000  0.929497000  0.234192000

  ion indices of the primitive-cell ions
   primitive index   ion index
                 1           1
                 2           2
                 3           3
                 4           4
                 5           5
                 6           6
                 7           7
                 8           8
                 9           9
                10          10
                11          11
                12          12
                13          13
                14          14
                15          15
                16          16
                17          17
                18          18
                19          19
                20          20
                21          21
                22          22
                23          23
                24          24
                25          25
                26          26
                27          27
                28          28
                29          29
                30          30
                31          31
                32          32
                33          33
                34          34
                35          35
                36          36
                37          37
                38          38
                39          39
                40          40

----------------------------------------------------------------------------------------

 
 
 KPOINTS: Fully automatic kpoint scheme           

Automatic generation of k-mesh.
 generate k-points for:    4    3    3
Space group operators:
 irot       det(A)        alpha          n_x          n_y          n_z        tau_x        tau_y        tau_z
    1     1.000000     0.000000     1.000000     0.000000     0.000000     0.000000     0.000000     0.000000
    2     1.000000   180.000000     0.000000     0.000000     1.000000    -0.500000     0.000000    -0.500000
    3     1.000000   180.000000     0.000000     1.000000     0.000000     0.000000    -0.500000    -0.500000
    4     1.000000   180.000000     1.000000     0.000000     0.000000    -0.500000    -0.500000     0.000000
 TETIRR: Found    102 inequivalent tetrahedra from      216
 
 Subroutine IBZKPT returns following result:
 ===========================================
 
 Found     12 irreducible k-points:
 
 Following reciprocal coordinates:
            Coordinates               Weight
  0.000000  0.000000  0.000000      1.000000
  0.250000  0.000000  0.000000      2.000000
  0.500000  0.000000  0.000000      1.000000
  0.000000  0.333333  0.000000      2.000000
  0.250000  0.333333  0.000000      4.000000
  0.500000  0.333333  0.000000      2.000000
  0.000000  0.000000  0.333333      2.000000
  0.250000  0.000000  0.333333      4.000000
  0.500000  0.000000  0.333333      2.000000
  0.000000  0.333333  0.333333      4.000000
  0.250000  0.333333  0.333333      8.000000
  0.500000  0.333333  0.333333      4.000000
 
 Following cartesian coordinates:
            Coordinates               Weight
  0.000000  0.000000  0.000000      1.000000
  0.032771  0.000000  0.000000      2.000000
  0.065542  0.000000  0.000000      1.000000
  0.000000  0.033848  0.000000      2.000000
  0.032771  0.033848  0.000000      4.000000
  0.065542  0.033848  0.000000      2.000000
  0.000000  0.000000  0.031455      2.000000
  0.032771  0.000000  0.031455      4.000000
  0.065542  0.000000  0.031455      2.000000
  0.000000  0.033848  0.031455      4.000000
  0.032771  0.033848  0.031455      8.000000
  0.065542  0.033848  0.031455      4.000000
 


--------------------------------------------------------------------------------------------------------




 Dimension of arrays:
   k-points           NKPTS =     12   k-points in BZ     NKDIM =     12   number of bands    NBANDS=    112
   number of dos      NEDOS =    301   number of ions     NIONS =     40
   non local maximal  LDIM  =      4   non local SUM 2l+1 LMDIM =      8
   total plane-waves  NPLWV = 384000
   max r-space proj   IRMAX =   3636   max aug-charges    IRDMAX=  14876
   dimension x,y,z NGX =    60 NGY =   80 NGZ =   80
   dimension x,y,z NGXF=   120 NGYF=  160 NGZF=  160
   support grid    NGXF=   120 NGYF=  160 NGZF=  160
   ions per type =              12  28
   NGX,Y,Z   is equivalent  to a cutoff of  13.08, 13.51, 12.55 a.u.
   NGXF,Y,Z  is equivalent  to a cutoff of  26.15, 27.01, 25.10 a.u.

 SYSTEM =  unknown system                          
 POSCAR =  Li12 P28                                

 Startparameter for this run:
   NWRITE =      2    write-flag & timer
   PREC   = accura    normal or accurate (medium, high low for compatibility)
   ISTART =      0    job   : 0-new  1-cont  2-samecut
   ICHARG =      2    charge: 1-file 2-atom 10-const
   ISPIN  =      2    spin polarized calculation?
   LNONCOLLINEAR =      F non collinear calculations
   LSORBIT =      F    spin-orbit coupling
   INIWAV =      1    electr: 0-lowe 1-rand  2-diag
   LASPH  =      T    aspherical Exc in radial PAW
   METAGGA=      F    non-selfconsistent MetaGGA calc.

 Electronic Relaxation 1
   ENCUT  =  520.0 eV  38.22 Ry    6.18 a.u.  14.18 18.31 19.70*2*pi/ulx,y,z
   ENINI  =  520.0     initial cutoff
   ENAUG  =  628.9 eV  augmentation charge cutoff
   NELM   =    100;   NELMIN=  2; NELMDL= -5     # of ELM steps 
   EDIFF  = 0.1E-04   stopping-criterion for ELM
   LREAL  =      T    real-space projection
   NLSPLINE    = F    spline interpolate recip. space projectors
   LCOMPAT=      F    compatible to vasp.4.4
   GGA_COMPAT  = T    GGA compatible to vasp.4.4-vasp.4.6
   LMAXPAW     = -100 max onsite density
   LMAXMIX     =    2 max onsite mixed and CHGCAR
   VOSKOWN=      0    Vosko Wilk Nusair interpolation
   ROPT   =   -0.00025  -0.00025
 Ionic relaxation
   EDIFFG = 0.1E-03   stopping-criterion for IOM
   NSW    =     99    number of steps for IOM
   NBLOCK =      1;   KBLOCK =     99    inner block; outer block 
   IBRION =      2    ionic relax: 0-MD 1-quasi-New 2-CG
   NFREE  =      1    steps in history (QN), initial steepest desc. (CG)
   ISIF   =      3    stress and relaxation
   IWAVPR =     11    prediction:  0-non 1-charg 2-wave 3-comb
   ISYM   =      2    0-nonsym 1-usesym 2-fastsym
   LCORR  =      T    Harris-Foulkes like correction to forces

   POTIM  = 0.5000    time-step for ionic-motion
   TEIN   =    0.0    initial temperature
   TEBEG  =    0.0;   TEEND  =   0.0 temperature during run
   SMASS  =  -3.00    Nose mass-parameter (am)
   estimated Nose-frequenzy (Omega)   =  0.10E-29 period in steps = 0.13E+47 mass=  -0.133E-26a.u.
   SCALEE = 1.0000    scale energy and forces
   NPACO  =    256;   APACO  = 16.0  distance and # of slots for P.C.
   PSTRESS=    0.0 pullay stress

  Mass of Ions in am
   POMASS =   7.01 30.97
  Ionic Valenz
   ZVAL   =   3.00  5.00
  Atomic Wigner-Seitz radii
   RWIGS  =  -1.00 -1.00
  virtual crystal weights 
   VCA    =   1.00  1.00
   NELECT =     176.0000    total number of electrons
   NUPDOWN=      -1.0000    fix difference up-down

 DOS related values:
   EMIN   =  10.00;   EMAX   =-10.00  energy-range for DOS
   EFERMI =   0.00
   ISMEAR =    -5;   SIGMA  =   0.05  broadening in eV -4-tet -1-fermi 0-gaus

 Electronic relaxation 2 (details)
   IALGO  =     68    algorithm
   LDIAG  =      T    sub-space diagonalisation (order eigenvalues)
   LSUBROT=      F    optimize rotation matrix (better conditioning)
   TURBO    =      0    0=normal 1=particle mesh
   IRESTART =      0    0=no restart 2=restart with 2 vectors
   NREBOOT  =      0    no. of reboots
   NMIN     =      0    reboot dimension
   EREF     =   0.00    reference energy to select bands
   IMIX   =      4    mixing-type and parameters
     AMIX     =   0.40;   BMIX     =  1.00
     AMIX_MAG =   1.60;   BMIX_MAG =  1.00
     AMIN     =   0.10
     WC   =   100.;   INIMIX=   1;  MIXPRE=   1;  MAXMIX= -45

 Intra band minimization:
   WEIMIN = 0.0010     energy-eigenvalue tresh-hold
   EBREAK =  0.22E-07  absolut break condition
   DEPER  =   0.30     relativ break condition  

   TIME   =   0.40     timestep for ELM

  volume/ion in A,a.u.               =      19.90       134.31
  Fermi-wavevector in a.u.,A,eV,Ry     =   0.989883  1.870608 13.331925  0.979869
  Thomas-Fermi vector in A             =   2.121514
 
 Write flags
   LWAVE        =      F    write WAVECAR
   LDOWNSAMPLE  =      F    k-point downsampling of WAVECAR
   LCHARG       =      F    write CHGCAR
   LVTOT        =      F    write LOCPOT, total local potential
   LVHAR        =      F    write LOCPOT, Hartree potential only
   LELF         =      F    write electronic localiz. function (ELF)
   LORBIT       =     11    0 simple, 1 ext, 2 COOP (PROOUT), +10 PAW based schemes


 Dipole corrections
   LMONO  =      F    monopole corrections only (constant potential shift)
   LDIPOL =      F    correct potential (dipole corrections)
   IDIPOL =      0    1-x, 2-y, 3-z, 4-all directions 
   EPSILON=  1.0000000 bulk dielectric constant

 Exchange correlation treatment:
   GGA     =    --    GGA type
   LEXCH   =     8    internal setting for exchange type
   VOSKOWN=      0    Vosko Wilk Nusair interpolation
   LHFCALC =     F    Hartree Fock is set to
   LHFONE  =     F    Hartree Fock one center treatment
   AEXX    =    0.0000 exact exchange contribution

 Linear response parameters
   LEPSILON=     F    determine dielectric tensor
   LRPA    =     F    only Hartree local field effects (RPA)
   LNABLA  =     F    use nabla operator in PAW spheres
   LVEL    =     F    velocity operator in full k-point grid
   LINTERFAST=   F  fast interpolation
   KINTER  =     0    interpolate to denser k-point grid
   CSHIFT  =0.1000    complex shift for real part using Kramers Kronig
   OMEGAMAX=  -1.0    maximum frequency
   DEG_THRESHOLD= 0.2000000E-02 threshold for treating states as degnerate
   RTIME   =   -0.100 relaxation time in fs
  (WPLASMAI=    0.000 imaginary part of plasma frequency in eV, 0.658/RTIME)
   DFIELD  = 0.0000000 0.0000000 0.0000000 field for delta impulse in time
 
 Orbital magnetization related:
   ORBITALMAG=     F  switch on orbital magnetization
   LCHIMAG   =     F  perturbation theory with respect to B field
   DQ        =  0.001000  dq finite difference perturbation B field
   LLRAUG    =     F  two centre corrections for induced B field



--------------------------------------------------------------------------------------------------------


 conjugate gradient relaxation of ions
 charge density and potential will be updated during run
 spin polarized calculation
 RMM-DIIS sequential band-by-band and
  variant of blocked Davidson during initial phase
 perform sub-space diagonalisation
    before iterative eigenvector-optimisation
 modified Broyden-mixing scheme, WC =      100.0
 initial mixing is a Kerker type mixing with AMIX =  0.4000 and BMIX =      1.0000
 Hartree-type preconditioning will be used
 using additional bands           24
 real space projection scheme for non local part
 use partial core corrections
 calculate Harris-corrections to forces 
   (improved forces if not selfconsistent)
 use gradient corrections 
 use of overlap-Matrix (Vanderbilt PP)
 Fermi weights with tetrahedron method with Bloechl corrections


--------------------------------------------------------------------------------------------------------


  energy-cutoff  :      520.00
  volume of cell :      796.13
      direct lattice vectors                 reciprocal lattice vectors
     7.628682000  0.000000000  0.000000000     0.131084242  0.000000000  0.000000000
     0.000000000  9.847875000  0.000000000     0.000000000  0.101544750  0.000000000
     0.000000000  0.000000000 10.597250000     0.000000000  0.000000000  0.094364104

  length of vectors
     7.628682000  9.847875000 10.597250000     0.131084242  0.101544750  0.094364104


 
 k-points in units of 2pi/SCALE and weight: Fully automatic kpoint scheme           
   0.00000000  0.00000000  0.00000000       0.028
   0.03277106  0.00000000  0.00000000       0.056
   0.06554212  0.00000000  0.00000000       0.028
   0.00000000  0.03384825  0.00000000       0.056
   0.03277106  0.03384825  0.00000000       0.111
   0.06554212  0.03384825  0.00000000       0.056
   0.00000000  0.00000000  0.03145470       0.056
   0.03277106  0.00000000  0.03145470       0.111
   0.06554212  0.00000000  0.03145470       0.056
   0.00000000  0.03384825  0.03145470       0.111
   0.03277106  0.03384825  0.03145470       0.222
   0.06554212  0.03384825  0.03145470       0.111
 
 k-points in reciprocal lattice and weights: Fully automatic kpoint scheme           
   0.00000000  0.00000000  0.00000000       0.028
   0.25000000  0.00000000  0.00000000       0.056
   0.50000000  0.00000000  0.00000000       0.028
   0.00000000  0.33333333  0.00000000       0.056
   0.25000000  0.33333333  0.00000000       0.111
   0.50000000  0.33333333  0.00000000       0.056
   0.00000000  0.00000000  0.33333333       0.056
   0.25000000  0.00000000  0.33333333       0.111
   0.50000000  0.00000000  0.33333333       0.056
   0.00000000  0.33333333  0.33333333       0.111
   0.25000000  0.33333333  0.33333333       0.222
   0.50000000  0.33333333  0.33333333       0.111
 
 position of ions in fractional coordinates (direct lattice) 
   0.85053200  0.30784800  0.81605000
   0.35053200  0.19215200  0.18395000
   0.14946800  0.80784800  0.68395000
   0.64946800  0.69215200  0.31605000
   0.56894900  0.02595000  0.01479500
   0.06894900  0.47405000  0.98520500
   0.43105100  0.52595000  0.48520500
   0.93105100  0.97405000  0.51479500
   0.40223800  0.30137100  0.69212400
   0.90223800  0.19862900  0.30787600
   0.59776200  0.80137100  0.80787600
   0.09776200  0.69862900  0.19212400
   0.28076800  0.87549100  0.31884800
   0.78076800  0.62450900  0.68115200
   0.71923200  0.37549100  0.18115200
   0.21923200  0.12450900  0.81884800
   0.63764600  0.04852200  0.38740200
   0.13764600  0.45147800  0.61259800
   0.36235400  0.54852200  0.11259800
   0.86235400  0.95147800  0.88740200
   0.53379700  0.94352800  0.56513200
   0.03379700  0.55647200  0.43486800
   0.46620300  0.44352800  0.93486800
   0.96620300  0.05647200  0.06513200
   0.40605300  0.13484100  0.49428800
   0.90605300  0.36515900  0.50571200
   0.59394700  0.63484100  0.00571200
   0.09394700  0.86515900  0.99428800
   0.31626500  0.92702700  0.88129000
   0.81626500  0.57297300  0.11871000
   0.68373500  0.42702700  0.61871000
   0.18373500  0.07297300  0.38129000
   0.12872500  0.21803100  0.99461700
   0.62872500  0.28196900  0.00538300
   0.87127500  0.71803100  0.50538300
   0.37127500  0.78196900  0.49461700
   0.96649300  0.07050300  0.73419200
   0.46649300  0.42949700  0.26580800
   0.03350700  0.57050300  0.76580800
   0.53350700  0.92949700  0.23419200
 
 position of ions in cartesian coordinates  (Angst):
   6.48843816  3.03164862  8.64788586
   2.67409716  1.89228888  1.94936414
   1.14024384  7.95558612  7.24798914
   4.95458484  6.81622638  3.34926086
   4.34033100  0.25555236  0.15678631
   0.52599000  4.66838514 10.44046369
   3.28835100  5.17948986  5.14183869
   7.10269200  9.59232264  5.45541131
   3.06854579  2.96786394  7.33461106
   6.88288679  1.95607356  3.26263894
   4.56013621  7.89180144  8.56126394
   0.74579521  6.88001106  2.03598606
   2.14188979  8.62172593  3.37891197
   5.95623079  6.15008657  7.21833803
   5.48679221  3.69778843  1.91971303
   1.67245121  1.22614907  8.67753697
   4.86439856  0.47783859  4.10539584
   1.05005756  4.44609891  6.49185416
   2.76428344  5.40177609  1.19322916
   6.57862444  9.37003641  9.40402084
   4.07216757  9.29174580  5.98884509
   0.25782657  5.48006670  4.60840491
   3.55651443  4.36780830  9.90702991
   7.37085543  0.55612920  0.69022009
   3.09764921  1.32789731  5.23809351
   6.91199021  3.59604019  5.35915649
   4.53103279  6.25183481  0.06053149
   0.71669179  8.51997769 10.53671851
   2.41268511  9.12924602  9.33925045
   6.22702611  5.64256648  1.25799955
   5.21599689  4.20530852  6.55662455
   1.40165589  0.71862898  4.04062545
   0.98200209  2.14714203 10.54020500
   4.79634309  2.77679547  0.05704500
   6.64667991  7.07107953  5.35567000
   2.83233891  7.70073297  5.24158000
   7.37306775  0.69430473  7.78041617
   3.55872675  4.22963277  2.81683383
   0.25561425  5.61824223  8.11545883
   4.06995525  9.15357027  2.48179117
 


--------------------------------------------------------------------------------------------------------


 k-point   1 :   0.0000 0.0000 0.0000  plane waves:   21435
 k-point   2 :   0.2500 0.0000 0.0000  plane waves:   21452
 k-point   3 :   0.5000 0.0000 0.0000  plane waves:   21428
 k-point   4 :   0.0000 0.3333 0.0000  plane waves:   21452
 k-point   5 :   0.2500 0.3333 0.0000  plane waves:   21404
 k-point   6 :   0.5000 0.3333 0.0000  plane waves:   21472
 k-point   7 :   0.0000 0.0000 0.3333  plane waves:   21402
 k-point   8 :   0.2500 0.0000 0.3333  plane waves:   21434
 k-point   9 :   0.5000 0.0000 0.3333  plane waves:   21446
 k-point  10 :   0.0000 0.3333 0.3333  plane waves:   21449
 k-point  11 :   0.2500 0.3333 0.3333  plane waves:   21424
 k-point  12 :   0.5000 0.3333 0.3333  plane waves:   21424

 maximum and minimum number of plane-waves per node :      3601     3535

 maximum number of plane-waves:     21472
 maximum index in each direction: 
   IXMAX=   14   IYMAX=   18   IZMAX=   19
   IXMIN=  -14   IYMIN=  -18   IZMIN=  -20


 real space projection operators:
  total allocation   :       7250.12 KBytes
  max/ min on nodes  :       1214.00       1203.97


 parallel 3D FFT for wavefunctions:
    minimum data exchange during FFTs selected (reduces bandwidth)
 parallel 3D FFT for charge:
    minimum data exchange during FFTs selected (reduces bandwidth)


 total amount of memory used by VASP MPI-rank0    69380. kBytes
=======================================================================

   base      :      30000. kBytes
   nonlr-proj:       3952. kBytes
   fftplans  :       4423. kBytes
   grid      :      11351. kBytes
   one-center:         43. kBytes
   wavefun   :      19611. kBytes
 
     INWAV:  cpu time    0.0000: real time    0.0000
 Broyden mixing: mesh for mixing (old mesh)
   NGX = 29   NGY = 37   NGZ = 39
  (NGX  =120   NGY  =160   NGZ  =160)
  gives a total of  41847 points

 initial charge density was supplied:
 charge density of overlapping atoms calculated
 number of electron     176.0000000 magnetization       0.0000000
 keeping initial charge density in first step


--------------------------------------------------------------------------------------------------------


 Maximum index for non-local projection operator          604
 Maximum index for augmentation-charges          705 (set IRDMAX)


--------------------------------------------------------------------------------------------------------


 First call to EWALD:  gamma=   0.191
 Maximum number of real-space cells 3x 3x 2
 Maximum number of reciprocal cells 2x 3x 3

    FEWALD:  cpu time    0.0019: real time    0.0019


--------------------------------------- Iteration      1(   1)  ---------------------------------------


    POTLOK:  cpu time    0.1195: real time    0.1234
    SETDIJ:  cpu time    0.2122: real time    0.2122
     EDDAV:  cpu time    6.4025: real time    6.4135
 BZINTS: Fermi energy:   14.614621;  176.000000 electrons
         Band energy:-0.675415E+02;  BLOECHL correction:   -0.050751
       DOS:  cpu time    0.0382: real time    0.0382
    --------------------------------------------
      LOOP:  cpu time    6.7724: real time    6.7873

 eigenvalue-minimisations  :  5376
 total energy-change (2. order) : 0.1103904E+04  (-0.6900047E+04)
 number of electron     176.0000000 magnetization       0.0000000
 augmentation part      176.0000000 magnetization       0.0000000

 Free energy of the ion-electron system (eV)
  ---------------------------------------------------
  alpha Z        PSCENC =       144.47638627
  Ewald energy   TEWEN  =     -5351.30181053
  -Hartree energ DENC   =     -1268.70791034
  -exchange      EXHF   =         0.00000000
  -V(xc)+E(xc)   XCENC  =       240.87467851
  PAW double counting   =      4870.42034785    -4826.76504232
  entropy T*S    EENTRO =         0.00000000
  eigenvalues    EBANDS =       -67.54145321
  atomic energy  EATOM  =      7362.44866298
  Solvation  Ediel_sol  =         0.00000000
  ---------------------------------------------------
  free energy    TOTEN  =      1103.90385921 eV

  energy without entropy =     1103.90385921  energy(sigma->0) =     1103.90385921


--------------------------------------------------------------------------------------------------------




--------------------------------------- Iteration      1(   2)  ---------------------------------------


     EDDAV:  cpu time    7.1340: real time    7.1343
 BZINTS: Fermi energy:    6.024458;  176.000000 electrons
         Band energy:-0.119805E+04;  BLOECHL correction:    0.000000
       DOS:  cpu time    0.0198: real time    0.0198
    --------------------------------------------
      LOOP:  cpu time    7.1538: real time    7.1541

 eigenvalue-minimisations  :  6296
 total energy-change (2. order) :-0.1130506E+04  (-0.1055123E+04)
 number of electron     176.0000000 magnetization       0.0000000
 augmentation part      176.0000000 magnetization       0.0000000

 Free energy of the ion-electron system (eV)
  ---------------------------------------------------
  alpha Z        PSCENC =       144.47638627
  Ewald energy   TEWEN  =     -5351.30181053
  -Hartree energ DENC   =     -1268.70791034
  -exchange      EXHF   =         0.00000000
  -V(xc)+E(xc)   XCENC  =       240.87467851
  PAW double counting   =      4870.42034785    -4826.76504232
  entropy T*S    EENTRO =         0.00000000
  eigenvalues    EBANDS =     -1198.04709225
  atomic energy  EATOM  =      7362.44866298
  Solvation  Ediel_sol  =         0.00000000
  ---------------------------------------------------
  free energy    TOTEN  =       -26.60177983 eV

  energy without entropy =      -26.60177983  energy(sigma->0) =      -26.60177983


--------------------------------------------------------------------------------------------------------




--------------------------------------- Iteration      1(   3)  ---------------------------------------


     EDDAV:  cpu time    7.9365: real time    7.9371
 BZINTS: Fermi energy:    5.208779;  176.000000 electrons
         Band energy:-0.134310E+04;  BLOECHL correction:    0.000000
       DOS:  cpu time    0.0184: real time    0.0184
    --------------------------------------------
      LOOP:  cpu time    7.9549: real time    7.9555

 eigenvalue-minimisations  :  7168
 total energy-change (2. order) :-0.1450497E+03  (-0.1432009E+03)
 number of electron     176.0000000 magnetization       0.0000000
 augmentation part      176.0000000 magnetization       0.0000000

 Free energy of the ion-electron system (eV)
  ---------------------------------------------------
  alpha Z        PSCENC =       144.47638627
  Ewald energy   TEWEN  =     -5351.30181053
  -Hartree energ DENC   =     -1268.70791034
  -exchange      EXHF   =         0.00000000
  -V(xc)+E(xc)   XCENC  =       240.87467851
  PAW double counting   =      4870.42034785    -4826.76504232
  entropy T*S    EENTRO =         0.00000000
  eigenvalues    EBANDS =     -1343.09683840
  atomic energy  EATOM  =      7362.44866298
  Solvation  Ediel_sol  =         0.00000000
  ---------------------------------------------------
  free energy    TOTEN  =      -171.65152598 eV

  energy without entropy =     -171.65152598  energy(sigma->0) =     -171.65152598


--------------------------------------------------------------------------------------------------------




--------------------------------------- Iteration      1(   4)  ---------------------------------------


     EDDAV:  cpu time   10.0239: real time   10.0245
 BZINTS: Fermi energy:    5.082704;  176.000000 electrons
         Band energy:-0.135959E+04;  BLOECHL correction:    0.000000
       DOS:  cpu time    0.0189: real time    0.0189
    --------------------------------------------
      LOOP:  cpu time   10.0428: real time   10.0434

 eigenvalue-minimisations  :  9704
 total energy-change (2. order) :-0.1649642E+02  (-0.1641821E+02)
 number of electron     176.0000000 magnetization       0.0000000
 augmentation part      176.0000000 magnetization       0.0000000

 Free energy of the ion-electron system (eV)
  ---------------------------------------------------
  alpha Z        PSCENC =       144.47638627
  Ewald energy   TEWEN  =     -5351.30181053
  -Hartree energ DENC   =     -1268.70791034
  -exchange      EXHF   =         0.00000000
  -V(xc)+E(xc)   XCENC  =       240.87467851
  PAW double counting   =      4870.42034785    -4826.76504232
  entropy T*S    EENTRO =         0.00000000
  eigenvalues    EBANDS =     -1359.59325811
  atomic energy  EATOM  =      7362.44866298
  Solvation  Ediel_sol  =         0.00000000
  ---------------------------------------------------
  free energy    TOTEN  =      -188.14794569 eV

  energy without entropy =     -188.14794569  energy(sigma->0) =     -188.14794569


--------------------------------------------------------------------------------------------------------




--------------------------------------- Iteration      1(   5)  ---------------------------------------


     EDDAV:  cpu time    9.3458: real time    9.3463
 BZINTS: Fermi energy:    5.070246;  176.000000 electrons
         Band energy:-0.136316E+04;  BLOECHL correction:    0.000000
       DOS:  cpu time    0.0187: real time    0.0187
    CHARGE:  cpu time    0.3041: real time    0.3041
    MIXING:  cpu time    0.0019: real time    0.0019
    --------------------------------------------
      LOOP:  cpu time    9.6705: real time    9.6710

 eigenvalue-minimisations  :  8896
 total energy-change (2. order) :-0.3563348E+01  (-0.3561633E+01)
 number of electron     176.0000041 magnetization      -0.0000000
 augmentation part       -3.1625827 magnetization      -0.0019554

 Broyden mixing:
  rms(total) = 0.26442E+01    rms(broyden)= 0.26439E+01
  rms(prec ) = 0.28126E+01
  weight for this iteration     100.00

 Free energy of the ion-electron system (eV)
  ---------------------------------------------------
  alpha Z        PSCENC =       144.47638627
  Ewald energy   TEWEN  =     -5351.30181053
  -Hartree energ DENC   =     -1268.70791034
  -exchange      EXHF   =         0.00000000
  -V(xc)+E(xc)   XCENC  =       240.87467851
  PAW double counting   =      4870.42034785    -4826.76504232
  entropy T*S    EENTRO =         0.00000000
  eigenvalues    EBANDS =     -1363.15660614
  atomic energy  EATOM  =      7362.44866298
  Solvation  Ediel_sol  =         0.00000000
  ---------------------------------------------------
  free energy    TOTEN  =      -191.71129372 eV

  energy without entropy =     -191.71129372  energy(sigma->0) =     -191.71129372


--------------------------------------------------------------------------------------------------------




--------------------------------------- Iteration      1(   6)  ---------------------------------------


    POTLOK:  cpu time    0.1148: real time    0.1149
    SETDIJ:  cpu time    0.2353: real time    0.2353
    EDDIAG:  cpu time    1.2521: real time    1.2522
  RMM-DIIS:  cpu time    4.1138: real time    4.1142
    ORTHCH:  cpu time    0.2139: real time    0.2139
 BZINTS: Fermi energy:    5.205599;  176.000000 electrons
         Band energy:-0.133184E+04;  BLOECHL correction:   -0.000000
       DOS:  cpu time    0.0211: real time    0.0211
    CHARGE:  cpu time    0.3031: real time    0.3032
    MIXING:  cpu time    0.0020: real time    0.0020
    --------------------------------------------
      LOOP:  cpu time    6.2563: real time    6.2568

 eigenvalue-minimisations  :  6967
 total energy-change (2. order) : 0.2439678E+01  (-0.4061699E+00)
 number of electron     176.0000041 magnetization      -0.0000000
 augmentation part       -3.0383263 magnetization      -0.0010608

 Broyden mixing:
  rms(total) = 0.15814E+01    rms(broyden)= 0.15814E+01
  rms(prec ) = 0.16587E+01
  weight for this iteration     100.00

 eigenvalues of (default mixing * dielectric matrix)
  average eigenvalue GAMMA=   2.4530
  2.4530

 Free energy of the ion-electron system (eV)
  ---------------------------------------------------
  alpha Z        PSCENC =       144.47638627
  Ewald energy   TEWEN  =     -5351.30181053
  -Hartree energ DENC   =     -1297.27524014
  -exchange      EXHF   =         0.00000000
  -V(xc)+E(xc)   XCENC  =       243.74948071
  PAW double counting   =      8387.26923389    -8346.79628351
  entropy T*S    EENTRO =         0.00000000
  eigenvalues    EBANDS =     -1331.84204567
  atomic energy  EATOM  =      7362.44866298
  Solvation  Ediel_sol  =         0.00000000
  ---------------------------------------------------
  free energy    TOTEN  =      -189.27161601 eV

  energy without entropy =     -189.27161601  energy(sigma->0) =     -189.27161601


--------------------------------------------------------------------------------------------------------




--------------------------------------- Iteration      1(   7)  ---------------------------------------


    POTLOK:  cpu time    0.1164: real time    0.1164
    SETDIJ:  cpu time    0.2345: real time    0.2345
    EDDIAG:  cpu time    1.2829: real time    1.2829
  RMM-DIIS:  cpu time    4.1757: real time    4.1761
    ORTHCH:  cpu time    0.2148: real time    0.2148
 BZINTS: Fermi energy:    5.370985;  176.000000 electrons
         Band energy:-0.129401E+04;  BLOECHL correction:    0.000000
       DOS:  cpu time    0.0187: real time    0.0187
    CHARGE:  cpu time    0.2972: real time    0.2972
    MIXING:  cpu time    0.0020: real time    0.0020
    --------------------------------------------
      LOOP:  cpu time    6.3421: real time    6.3427

 eigenvalue-minimisations  :  7084
 total energy-change (2. order) : 0.2691738E+00  (-0.6061057E+00)
 number of electron     176.0000041 magnetization      -0.0000000
 augmentation part       -2.8659995 magnetization      -0.0003754

 Broyden mixing:
  rms(total) = 0.20074E+00    rms(broyden)= 0.20074E+00
  rms(prec ) = 0.27363E+00
  weight for this iteration     100.00

 eigenvalues of (default mixing * dielectric matrix)
  average eigenvalue GAMMA=   2.1552
  1.8886  2.4219

 Free energy of the ion-electron system (eV)
  ---------------------------------------------------
  alpha Z        PSCENC =       144.47638627
  Ewald energy   TEWEN  =     -5351.30181053
  -Hartree energ DENC   =     -1334.84925278
  -exchange      EXHF   =         0.00000000
  -V(xc)+E(xc)   XCENC  =       248.04784600
  PAW double counting   =     15628.61937216   -15592.43614275
  entropy T*S    EENTRO =         0.00000000
  eigenvalues    EBANDS =     -1294.00750359
  atomic energy  EATOM  =      7362.44866298
  Solvation  Ediel_sol  =         0.00000000
  ---------------------------------------------------
  free energy    TOTEN  =      -189.00244225 eV

  energy without entropy =     -189.00244225  energy(sigma->0) =     -189.00244225


--------------------------------------------------------------------------------------------------------




--------------------------------------- Iteration      1(   8)  ---------------------------------------


    POTLOK:  cpu time    0.1141: real time    0.1141
    SETDIJ:  cpu time    0.2348: real time    0.2348
    EDDIAG:  cpu time    1.2473: real time    1.2473
  RMM-DIIS:  cpu time    4.2734: real time    4.2736
    ORTHCH:  cpu time    0.2259: real time    0.2259
 BZINTS: Fermi energy:    5.347719;  176.000000 electrons
         Band energy:-0.130134E+04;  BLOECHL correction:   -0.000000
       DOS:  cpu time    0.0202: real time    0.0202
    CHARGE:  cpu time    0.3009: real time    0.3009
    MIXING:  cpu time    0.0025: real time    0.0025
    --------------------------------------------
      LOOP:  cpu time    6.4191: real time    6.4194

 eigenvalue-minimisations  :  7272
 total energy-change (2. order) : 0.8417567E-01  (-0.1031925E+00)
 number of electron     176.0000041 magnetization      -0.0000000
 augmentation part       -2.9509203 magnetization      -0.0007446

 Broyden mixing:
  rms(total) = 0.66815E-01    rms(broyden)= 0.66795E-01
  rms(prec ) = 0.83231E-01
  weight for this iteration     100.00

 eigenvalues of (default mixing * dielectric matrix)
  average eigenvalue GAMMA=   1.7941
  2.4637  1.4594  1.4594

 Free energy of the ion-electron system (eV)
  ---------------------------------------------------
  alpha Z        PSCENC =       144.47638627
  Ewald energy   TEWEN  =     -5351.30181053
  -Hartree energ DENC   =     -1327.42164296
  -exchange      EXHF   =         0.00000000
  -V(xc)+E(xc)   XCENC  =       247.89332754
  PAW double counting   =     16169.35429357   -16133.03152538
  entropy T*S    EENTRO =         0.00000000
  eigenvalues    EBANDS =     -1301.33595805
  atomic energy  EATOM  =      7362.44866298
  Solvation  Ediel_sol  =         0.00000000
  ---------------------------------------------------
  free energy    TOTEN  =      -188.91826657 eV

  energy without entropy =     -188.91826657  energy(sigma->0) =     -188.91826657


--------------------------------------------------------------------------------------------------------




--------------------------------------- Iteration      1(   9)  ---------------------------------------


    POTLOK:  cpu time    0.1160: real time    0.1160
    SETDIJ:  cpu time    0.2343: real time    0.2344
    EDDIAG:  cpu time    1.2329: real time    1.2330
  RMM-DIIS:  cpu time    5.3418: real time    5.3420
    ORTHCH:  cpu time    0.2163: real time    0.2163
 BZINTS: Fermi energy:    5.357989;  176.000000 electrons
         Band energy:-0.129862E+04;  BLOECHL correction:    0.000000
       DOS:  cpu time    0.0185: real time    0.0185
    CHARGE:  cpu time    0.2973: real time    0.2973
    MIXING:  cpu time    0.0022: real time    0.0022
    --------------------------------------------
      LOOP:  cpu time    7.4593: real time    7.4597

 eigenvalue-minimisations  :  8985
 total energy-change (2. order) :-0.2544196E-01  (-0.3669171E-01)
 number of electron     176.0000041 magnetization      -0.0000000
 augmentation part       -3.0023524 magnetization      -0.0002664

 Broyden mixing:
  rms(total) = 0.64438E-01    rms(broyden)= 0.64383E-01
  rms(prec ) = 0.71000E-01
  weight for this iteration     100.00

 eigenvalues of (default mixing * dielectric matrix)
  average eigenvalue GAMMA=   1.6192
  2.3185  1.7953  1.7953  0.5678

 Free energy of the ion-electron system (eV)
  ---------------------------------------------------
  alpha Z        PSCENC =       144.47638627
  Ewald energy   TEWEN  =     -5351.30181053
  -Hartree energ DENC   =     -1330.18597856
  -exchange      EXHF   =         0.00000000
  -V(xc)+E(xc)   XCENC  =       248.10244043
  PAW double counting   =     16298.92325138   -16262.78569326
  entropy T*S    EENTRO =         0.00000000
  eigenvalues    EBANDS =     -1298.62096725
  atomic energy  EATOM  =      7362.44866298
  Solvation  Ediel_sol  =         0.00000000
  ---------------------------------------------------
  free energy    TOTEN  =      -188.94370854 eV

  energy without entropy =     -188.94370854  energy(sigma->0) =     -188.94370854


--------------------------------------------------------------------------------------------------------




--------------------------------------- Iteration      1(  10)  ---------------------------------------


    POTLOK:  cpu time    0.1180: real time    0.1180
    SETDIJ:  cpu time    0.2350: real time    0.2350
    EDDIAG:  cpu time    1.2647: real time    1.2647
  RMM-DIIS:  cpu time    5.5823: real time    5.5826
    ORTHCH:  cpu time    0.1832: real time    0.1832
 BZINTS: Fermi energy:    5.356855;  176.000000 electrons
         Band energy:-0.129871E+04;  BLOECHL correction:   -0.000000
       DOS:  cpu time    0.0193: real time    0.0193
    CHARGE:  cpu time    0.3002: real time    0.3003
    MIXING:  cpu time    0.0022: real time    0.0022
    --------------------------------------------
      LOOP:  cpu time    7.7049: real time    7.7052

 eigenvalue-minimisations  :  9097
 total energy-change (2. order) :-0.1058358E-01  (-0.1219133E-01)
 number of electron     176.0000041 magnetization      -0.0000000
 augmentation part       -3.0365547 magnetization      -0.0002190

 Broyden mixing:
  rms(total) = 0.47800E-01    rms(broyden)= 0.47752E-01
  rms(prec ) = 0.52006E-01
  weight for this iteration     100.00

 eigenvalues of (default mixing * dielectric matrix)
  average eigenvalue GAMMA=   1.8113
  2.8316  2.8316  1.3547  1.3547  0.6841

 Free energy of the ion-electron system (eV)
  ---------------------------------------------------
  alpha Z        PSCENC =       144.47638627
  Ewald energy   TEWEN  =     -5351.30181053
  -Hartree energ DENC   =     -1330.10925380
  -exchange      EXHF   =         0.00000000
  -V(xc)+E(xc)   XCENC  =       248.10455610
  PAW double counting   =     16213.98134801   -16177.84630020
  entropy T*S    EENTRO =         0.00000000
  eigenvalues    EBANDS =     -1298.70788094
  atomic energy  EATOM  =      7362.44866298
  Solvation  Ediel_sol  =         0.00000000
  ---------------------------------------------------
  free energy    TOTEN  =      -188.95429212 eV

  energy without entropy =     -188.95429212  energy(sigma->0) =     -188.95429212


--------------------------------------------------------------------------------------------------------




--------------------------------------- Iteration      1(  11)  ---------------------------------------


    POTLOK:  cpu time    0.1146: real time    0.1146
    SETDIJ:  cpu time    0.2344: real time    0.2345
    EDDIAG:  cpu time    1.1910: real time    1.1910
  RMM-DIIS:  cpu time    5.2856: real time    5.2860
    ORTHCH:  cpu time    0.1949: real time    0.1949
 BZINTS: Fermi energy:    5.357277;  176.000000 electrons
         Band energy:-0.129795E+04;  BLOECHL correction:   -0.000000
       DOS:  cpu time    0.0201: real time    0.0201
    CHARGE:  cpu time    0.3016: real time    0.3016
    MIXING:  cpu time    0.0022: real time    0.0022
    --------------------------------------------
      LOOP:  cpu time    7.3444: real time    7.3449

 eigenvalue-minimisations  :  8595
 total energy-change (2. order) :-0.6719548E-02  (-0.6852234E-02)
 number of electron     176.0000041 magnetization      -0.0000000
 augmentation part       -3.0600749 magnetization      -0.0002661

 Broyden mixing:
  rms(total) = 0.18278E-01    rms(broyden)= 0.18220E-01
  rms(prec ) = 0.20804E-01
  weight for this iteration     100.00

 eigenvalues of (default mixing * dielectric matrix)
  average eigenvalue GAMMA=   1.6131
  2.5479  2.0385  2.0385  1.2101  1.2101  0.6336

 Free energy of the ion-electron system (eV)
  ---------------------------------------------------
  alpha Z        PSCENC =       144.47638627
  Ewald energy   TEWEN  =     -5351.30181053
  -Hartree energ DENC   =     -1331.00893713
  -exchange      EXHF   =         0.00000000
  -V(xc)+E(xc)   XCENC  =       248.21747648
  PAW double counting   =     16134.50448160   -16098.34350540
  entropy T*S    EENTRO =         0.00000000
  eigenvalues    EBANDS =     -1297.95376593
  atomic energy  EATOM  =      7362.44866298
  Solvation  Ediel_sol  =         0.00000000
  ---------------------------------------------------
  free energy    TOTEN  =      -188.96101166 eV

  energy without entropy =     -188.96101166  energy(sigma->0) =     -188.96101166


--------------------------------------------------------------------------------------------------------




--------------------------------------- Iteration      1(  12)  ---------------------------------------


    POTLOK:  cpu time    0.1139: real time    0.1139
    SETDIJ:  cpu time    0.2347: real time    0.2347
    EDDIAG:  cpu time    1.1900: real time    1.1900
  RMM-DIIS:  cpu time    5.5392: real time    5.5395
    ORTHCH:  cpu time    0.1936: real time    0.1936
 BZINTS: Fermi energy:    5.359560;  176.000000 electrons
         Band energy:-0.129749E+04;  BLOECHL correction:    0.000000
       DOS:  cpu time    0.0186: real time    0.0186
    CHARGE:  cpu time    0.2973: real time    0.2973
    MIXING:  cpu time    0.0024: real time    0.0024
    --------------------------------------------
      LOOP:  cpu time    7.5897: real time    7.5901

 eigenvalue-minimisations  :  9190
 total energy-change (2. order) :-0.3719559E-02  (-0.4216578E-02)
 number of electron     176.0000041 magnetization      -0.0000000
 augmentation part       -3.0700168 magnetization      -0.0001606

 Broyden mixing:
  rms(total) = 0.12741E-01    rms(broyden)= 0.12690E-01
  rms(prec ) = 0.14233E-01
  weight for this iteration     100.00

 eigenvalues of (default mixing * dielectric matrix)
  average eigenvalue GAMMA=   1.5093
  2.5186  2.1391  2.1391  1.4417  1.1509  0.6515  0.5243

 Free energy of the ion-electron system (eV)
  ---------------------------------------------------
  alpha Z        PSCENC =       144.47638627
  Ewald energy   TEWEN  =     -5351.30181053
  -Hartree energ DENC   =     -1331.52151578
  -exchange      EXHF   =         0.00000000
  -V(xc)+E(xc)   XCENC  =       248.26105558
  PAW double counting   =     16214.31527919   -16178.15249723
  entropy T*S    EENTRO =         0.00000000
  eigenvalues    EBANDS =     -1297.49029168
  atomic energy  EATOM  =      7362.44866298
  Solvation  Ediel_sol  =         0.00000000
  ---------------------------------------------------
  free energy    TOTEN  =      -188.96473122 eV

  energy without entropy =     -188.96473122  energy(sigma->0) =     -188.96473122


--------------------------------------------------------------------------------------------------------




--------------------------------------- Iteration      1(  13)  ---------------------------------------


    POTLOK:  cpu time    0.1139: real time    0.1139
    SETDIJ:  cpu time    0.2349: real time    0.2349
    EDDIAG:  cpu time    1.1967: real time    1.1967
  RMM-DIIS:  cpu time    5.7819: real time    5.7824
    ORTHCH:  cpu time    0.2044: real time    0.2044
 BZINTS: Fermi energy:    5.359342;  176.000000 electrons
         Band energy:-0.129752E+04;  BLOECHL correction:   -0.000000
       DOS:  cpu time    0.0196: real time    0.0196
    CHARGE:  cpu time    0.3097: real time    0.3097
    MIXING:  cpu time    0.0025: real time    0.0025
    --------------------------------------------
      LOOP:  cpu time    7.8636: real time    7.8640

 eigenvalue-minimisations  :  9293
 total energy-change (2. order) :-0.2560602E-02  (-0.2627732E-02)
 number of electron     176.0000041 magnetization      -0.0000000
 augmentation part       -3.0832996 magnetization      -0.0001558

 Broyden mixing:
  rms(total) = 0.11991E-01    rms(broyden)= 0.11957E-01
  rms(prec ) = 0.13083E-01
  weight for this iteration     100.00

 eigenvalues of (default mixing * dielectric matrix)
  average eigenvalue GAMMA=   1.6204
  2.7718  2.7718  2.5942  1.4020  1.3109  0.7368  0.7368  0.6391

 Free energy of the ion-electron system (eV)
  ---------------------------------------------------
  alpha Z        PSCENC =       144.47638627
  Ewald energy   TEWEN  =     -5351.30181053
  -Hartree energ DENC   =     -1331.55891242
  -exchange      EXHF   =         0.00000000
  -V(xc)+E(xc)   XCENC  =       248.26524076
  PAW double counting   =     16199.26250858   -16163.03903913
  entropy T*S    EENTRO =         0.00000000
  eigenvalues    EBANDS =     -1297.52032834
  atomic energy  EATOM  =      7362.44866298
  Solvation  Ediel_sol  =         0.00000000
  ---------------------------------------------------
  free energy    TOTEN  =      -188.96729182 eV

  energy without entropy =     -188.96729182  energy(sigma->0) =     -188.96729182


--------------------------------------------------------------------------------------------------------




--------------------------------------- Iteration      1(  14)  ---------------------------------------


    POTLOK:  cpu time    0.1179: real time    0.1179
    SETDIJ:  cpu time    0.2349: real time    0.2349
    EDDIAG:  cpu time    1.3041: real time    1.3042
  RMM-DIIS:  cpu time    5.5188: real time    5.5190
    ORTHCH:  cpu time    0.2131: real time    0.2131
 BZINTS: Fermi energy:    5.360101;  176.000000 electrons
         Band energy:-0.129712E+04;  BLOECHL correction:   -0.000000
       DOS:  cpu time    0.0205: real time    0.0205
    CHARGE:  cpu time    0.3022: real time    0.3022
    MIXING:  cpu time    0.0025: real time    0.0025
    --------------------------------------------
      LOOP:  cpu time    7.7140: real time    7.7143

 eigenvalue-minimisations  :  9039
 total energy-change (2. order) :-0.1678154E-02  (-0.1667073E-02)
 number of electron     176.0000041 magnetization      -0.0000000
 augmentation part       -3.0916297 magnetization      -0.0001342

 Broyden mixing:
  rms(total) = 0.52838E-02    rms(broyden)= 0.52368E-02
  rms(prec ) = 0.66362E-02
  weight for this iteration     100.00

 eigenvalues of (default mixing * dielectric matrix)
  average eigenvalue GAMMA=   1.6125
  2.7910  2.5341  2.5341  1.9658  1.3234  1.0069  1.0069  0.7281  0.6220

 Free energy of the ion-electron system (eV)
  ---------------------------------------------------
  alpha Z        PSCENC =       144.47638627
  Ewald energy   TEWEN  =     -5351.30181053
  -Hartree energ DENC   =     -1332.14894645
  -exchange      EXHF   =         0.00000000
  -V(xc)+E(xc)   XCENC  =       248.31482459
  PAW double counting   =     16190.96006862   -16154.59874886
  entropy T*S    EENTRO =         0.00000000
  eigenvalues    EBANDS =     -1297.11940660
  atomic energy  EATOM  =      7362.44866298
  Solvation  Ediel_sol  =         0.00000000
  ---------------------------------------------------
  free energy    TOTEN  =      -188.96896998 eV

  energy without entropy =     -188.96896998  energy(sigma->0) =     -188.96896998


--------------------------------------------------------------------------------------------------------




--------------------------------------- Iteration      1(  15)  ---------------------------------------


    POTLOK:  cpu time    0.1159: real time    0.1159
    SETDIJ:  cpu time    0.2349: real time    0.2349
    EDDIAG:  cpu time    1.3223: real time    1.3224
  RMM-DIIS:  cpu time    5.5238: real time    5.5240
    ORTHCH:  cpu time    0.2178: real time    0.2178
 BZINTS: Fermi energy:    5.359488;  176.000000 electrons
         Band energy:-0.129720E+04;  BLOECHL correction:    0.000000
       DOS:  cpu time    0.0193: real time    0.0193
    CHARGE:  cpu time    0.2979: real time    0.2980
    MIXING:  cpu time    0.0025: real time    0.0025
    --------------------------------------------
      LOOP:  cpu time    7.7343: real time    7.7347

 eigenvalue-minimisations  :  9215
 total energy-change (2. order) :-0.8943540E-03  (-0.9812088E-03)
 number of electron     176.0000041 magnetization      -0.0000000
 augmentation part       -3.0983180 magnetization      -0.0001013

 Broyden mixing:
  rms(total) = 0.38776E-02    rms(broyden)= 0.38441E-02
  rms(prec ) = 0.44156E-02
  weight for this iteration     100.00

 eigenvalues of (default mixing * dielectric matrix)
  average eigenvalue GAMMA=   1.6376
  2.9067  2.9067  2.9183  1.9098  1.6360  1.0271  1.0271  0.8394  0.6279  0.5766

 Free energy of the ion-electron system (eV)
  ---------------------------------------------------
  alpha Z        PSCENC =       144.47638627
  Ewald energy   TEWEN  =     -5351.30181053
  -Hartree energ DENC   =     -1332.07168237
  -exchange      EXHF   =         0.00000000
  -V(xc)+E(xc)   XCENC  =       248.31385873
  PAW double counting   =     16186.75296258   -16150.38346935
  entropy T*S    EENTRO =         0.00000000
  eigenvalues    EBANDS =     -1297.20477264
  atomic energy  EATOM  =      7362.44866298
  Solvation  Ediel_sol  =         0.00000000
  ---------------------------------------------------
  free energy    TOTEN  =      -188.96986433 eV

  energy without entropy =     -188.96986433  energy(sigma->0) =     -188.96986433


--------------------------------------------------------------------------------------------------------




--------------------------------------- Iteration      1(  16)  ---------------------------------------


    POTLOK:  cpu time    0.1182: real time    0.1182
    SETDIJ:  cpu time    0.2354: real time    0.2354
    EDDIAG:  cpu time    1.2916: real time    1.2916
  RMM-DIIS:  cpu time    5.4092: real time    5.4094
    ORTHCH:  cpu time    0.2019: real time    0.2019
 BZINTS: Fermi energy:    5.359347;  176.000000 electrons
         Band energy:-0.129716E+04;  BLOECHL correction:    0.000000
       DOS:  cpu time    0.0187: real time    0.0187
    CHARGE:  cpu time    0.3013: real time    0.3013
    MIXING:  cpu time    0.0026: real time    0.0026
    --------------------------------------------
      LOOP:  cpu time    7.5788: real time    7.5791

 eigenvalue-minimisations  :  8955
 total energy-change (2. order) :-0.6494981E-03  (-0.6783072E-03)
 number of electron     176.0000041 magnetization      -0.0000000
 augmentation part       -3.1033633 magnetization      -0.0000810

 Broyden mixing:
  rms(total) = 0.32343E-02    rms(broyden)= 0.32073E-02
  rms(prec ) = 0.35503E-02
  weight for this iteration     100.00

 eigenvalues of (default mixing * dielectric matrix)
  average eigenvalue GAMMA=   1.5833
  3.8018  2.7920  2.7920  1.7806  1.7806  1.0343  1.0343  0.7953  0.6232  0.4910
  0.4910

 Free energy of the ion-electron system (eV)
  ---------------------------------------------------
  alpha Z        PSCENC =       144.47638627
  Ewald energy   TEWEN  =     -5351.30181053
  -Hartree energ DENC   =     -1332.17025243
  -exchange      EXHF   =         0.00000000
  -V(xc)+E(xc)   XCENC  =       248.32132302
  PAW double counting   =     16186.21287802   -16149.79345598
  entropy T*S    EENTRO =         0.00000000
  eigenvalues    EBANDS =     -1297.16424518
  atomic energy  EATOM  =      7362.44866298
  Solvation  Ediel_sol  =         0.00000000
  ---------------------------------------------------
  free energy    TOTEN  =      -188.97051383 eV

  energy without entropy =     -188.97051383  energy(sigma->0) =     -188.97051383


--------------------------------------------------------------------------------------------------------




--------------------------------------- Iteration      1(  17)  ---------------------------------------


    POTLOK:  cpu time    0.1143: real time    0.1144
    SETDIJ:  cpu time    0.2351: real time    0.2351
    EDDIAG:  cpu time    1.2375: real time    1.2376
  RMM-DIIS:  cpu time    5.4338: real time    5.4342
    ORTHCH:  cpu time    0.2371: real time    0.2371
 BZINTS: Fermi energy:    5.358973;  176.000000 electrons
         Band energy:-0.129715E+04;  BLOECHL correction:    0.000000
       DOS:  cpu time    0.0188: real time    0.0188
    CHARGE:  cpu time    0.2983: real time    0.2984
    MIXING:  cpu time    0.0027: real time    0.0027
    --------------------------------------------
      LOOP:  cpu time    7.5776: real time    7.5781

 eigenvalue-minimisations  :  8734
 total energy-change (2. order) :-0.3954931E-03  (-0.4106780E-03)
 number of electron     176.0000041 magnetization      -0.0000000
 augmentation part       -3.1075992 magnetization      -0.0000673

 Broyden mixing:
  rms(total) = 0.27490E-02    rms(broyden)= 0.27294E-02
  rms(prec ) = 0.30496E-02
  weight for this iteration     100.00

 eigenvalues of (default mixing * dielectric matrix)
  average eigenvalue GAMMA=   1.6835
  4.8245  3.0576  2.7992  1.8708  1.8708  1.1247  1.1247  0.7835  0.7835  0.7840
  0.6268  0.5522

 Free energy of the ion-electron system (eV)
  ---------------------------------------------------
  alpha Z        PSCENC =       144.47638627
  Ewald energy   TEWEN  =     -5351.30181053
  -Hartree energ DENC   =     -1332.22955380
  -exchange      EXHF   =         0.00000000
  -V(xc)+E(xc)   XCENC  =       248.32671846
  PAW double counting   =     16186.52960459   -16150.06662604
  entropy T*S    EENTRO =         0.00000000
  eigenvalues    EBANDS =     -1297.15429124
  atomic energy  EATOM  =      7362.44866298
  Solvation  Ediel_sol  =         0.00000000
  ---------------------------------------------------
  free energy    TOTEN  =      -188.97090932 eV

  energy without entropy =     -188.97090932  energy(sigma->0) =     -188.97090932


--------------------------------------------------------------------------------------------------------




--------------------------------------- Iteration      1(  18)  ---------------------------------------


    POTLOK:  cpu time    0.1171: real time    0.1171
    SETDIJ:  cpu time    0.2345: real time    0.2345
    EDDIAG:  cpu time    1.2824: real time    1.2825
  RMM-DIIS:  cpu time    5.4417: real time    5.4420
    ORTHCH:  cpu time    0.2244: real time    0.2244
 BZINTS: Fermi energy:    5.358654;  176.000000 electrons
         Band energy:-0.129712E+04;  BLOECHL correction:    0.000000
       DOS:  cpu time    0.0186: real time    0.0186
    CHARGE:  cpu time    0.2979: real time    0.2979
    MIXING:  cpu time    0.0029: real time    0.0029
    --------------------------------------------
      LOOP:  cpu time    7.6195: real time    7.6198

 eigenvalue-minimisations  :  8732
 total energy-change (2. order) :-0.2496218E-03  (-0.2642891E-03)
 number of electron     176.0000041 magnetization      -0.0000000
 augmentation part       -3.1104132 magnetization      -0.0000592

 Broyden mixing:
  rms(total) = 0.17171E-02    rms(broyden)= 0.16996E-02
  rms(prec ) = 0.18642E-02
  weight for this iteration     100.00

 eigenvalues of (default mixing * dielectric matrix)
  average eigenvalue GAMMA=   1.7127
  5.8324  2.8736  2.7853  1.9595  1.9595  1.2678  1.2678  0.8882  0.8882  0.7441
  0.6523  0.6102  0.5365

 Free energy of the ion-electron system (eV)
  ---------------------------------------------------
  alpha Z        PSCENC =       144.47638627
  Ewald energy   TEWEN  =     -5351.30181053
  -Hartree energ DENC   =     -1332.30219366
  -exchange      EXHF   =         0.00000000
  -V(xc)+E(xc)   XCENC  =       248.33242731
  PAW double counting   =     16187.36577397   -16150.86641558
  entropy T*S    EENTRO =         0.00000000
  eigenvalues    EBANDS =     -1297.12398970
  atomic energy  EATOM  =      7362.44866298
  Solvation  Ediel_sol  =         0.00000000
  ---------------------------------------------------
  free energy    TOTEN  =      -188.97115895 eV

  energy without entropy =     -188.97115895  energy(sigma->0) =     -188.97115895


--------------------------------------------------------------------------------------------------------




--------------------------------------- Iteration      1(  19)  ---------------------------------------


    POTLOK:  cpu time    0.1148: real time    0.1148
    SETDIJ:  cpu time    0.2351: real time    0.2351
    EDDIAG:  cpu time    1.2501: real time    1.2502
  RMM-DIIS:  cpu time    5.3821: real time    5.3824
    ORTHCH:  cpu time    0.2154: real time    0.2154
 BZINTS: Fermi energy:    5.358766;  176.000000 electrons
         Band energy:-0.129712E+04;  BLOECHL correction:   -0.000000
       DOS:  cpu time    0.0208: real time    0.0208
    CHARGE:  cpu time    0.3061: real time    0.3061
    MIXING:  cpu time    0.0029: real time    0.0029
    --------------------------------------------
      LOOP:  cpu time    7.5274: real time    7.5278

 eigenvalue-minimisations  :  8717
 total energy-change (2. order) :-0.1618549E-03  (-0.1725646E-03)
 number of electron     176.0000041 magnetization      -0.0000000
 augmentation part       -3.1130028 magnetization      -0.0000467

 Broyden mixing:
  rms(total) = 0.12293E-02    rms(broyden)= 0.12138E-02
  rms(prec ) = 0.12931E-02
  weight for this iteration     100.00

 eigenvalues of (default mixing * dielectric matrix)
  average eigenvalue GAMMA=   1.7104
  6.2249  3.0708  2.6231  2.0354  2.0354  1.2843  1.2843  1.0531  1.0531  0.7863
  0.7863  0.6393  0.6097  0.4598

 Free energy of the ion-electron system (eV)
  ---------------------------------------------------
  alpha Z        PSCENC =       144.47638627
  Ewald energy   TEWEN  =     -5351.30181053
  -Hartree energ DENC   =     -1332.33828601
  -exchange      EXHF   =         0.00000000
  -V(xc)+E(xc)   XCENC  =       248.33584482
  PAW double counting   =     16187.11983430   -16150.59202261
  entropy T*S    EENTRO =         0.00000000
  eigenvalues    EBANDS =     -1297.11993002
  atomic energy  EATOM  =      7362.44866298
  Solvation  Ediel_sol  =         0.00000000
  ---------------------------------------------------
  free energy    TOTEN  =      -188.97132080 eV

  energy without entropy =     -188.97132080  energy(sigma->0) =     -188.97132080


--------------------------------------------------------------------------------------------------------




--------------------------------------- Iteration      1(  20)  ---------------------------------------


    POTLOK:  cpu time    0.1168: real time    0.1168
    SETDIJ:  cpu time    0.2348: real time    0.2348
    EDDIAG:  cpu time    1.2938: real time    1.2940
  RMM-DIIS:  cpu time    5.1904: real time    5.1906
    ORTHCH:  cpu time    0.2082: real time    0.2082
 BZINTS: Fermi energy:    5.358558;  176.000000 electrons
         Band energy:-0.129711E+04;  BLOECHL correction:    0.000000
       DOS:  cpu time    0.0202: real time    0.0202
    CHARGE:  cpu time    0.2997: real time    0.2997
    MIXING:  cpu time    0.0030: real time    0.0030
    --------------------------------------------
      LOOP:  cpu time    7.3667: real time    7.3671

 eigenvalue-minimisations  :  8485
 total energy-change (2. order) :-0.1082917E-03  (-0.1136556E-03)
 number of electron     176.0000041 magnetization      -0.0000000
 augmentation part       -3.1147121 magnetization      -0.0000408

 Broyden mixing:
  rms(total) = 0.55809E-03    rms(broyden)= 0.53769E-03
  rms(prec ) = 0.58025E-03
  weight for this iteration     100.00

 eigenvalues of (default mixing * dielectric matrix)
  average eigenvalue GAMMA=   1.7534
  7.0665  3.0824  2.6266  2.2117  2.2117  1.5040  1.5040  1.0235  1.0235  0.8384
  0.8384  0.6653  0.6316  0.6049  0.4690

 Free energy of the ion-electron system (eV)
  ---------------------------------------------------
  alpha Z        PSCENC =       144.47638627
  Ewald energy   TEWEN  =     -5351.30181053
  -Hartree energ DENC   =     -1332.37013674
  -exchange      EXHF   =         0.00000000
  -V(xc)+E(xc)   XCENC  =       248.33859701
  PAW double counting   =     16186.94001020   -16150.39327996
  entropy T*S    EENTRO =         0.00000000
  eigenvalues    EBANDS =     -1297.10985833
  atomic energy  EATOM  =      7362.44866298
  Solvation  Ediel_sol  =         0.00000000
  ---------------------------------------------------
  free energy    TOTEN  =      -188.97142909 eV

  energy without entropy =     -188.97142909  energy(sigma->0) =     -188.97142909


--------------------------------------------------------------------------------------------------------




--------------------------------------- Iteration      1(  21)  ---------------------------------------


    POTLOK:  cpu time    0.1204: real time    0.1204
    SETDIJ:  cpu time    0.2354: real time    0.2354
    EDDIAG:  cpu time    1.2922: real time    1.2923
  RMM-DIIS:  cpu time    5.0154: real time    5.0158
    ORTHCH:  cpu time    0.2339: real time    0.2339
 BZINTS: Fermi energy:    5.358447;  176.000000 electrons
         Band energy:-0.129710E+04;  BLOECHL correction:    0.000000
       DOS:  cpu time    0.0195: real time    0.0195
    CHARGE:  cpu time    0.2994: real time    0.2994
    MIXING:  cpu time    0.0031: real time    0.0031
    --------------------------------------------
      LOOP:  cpu time    7.2192: real time    7.2198

 eigenvalue-minimisations  :  8173
 total energy-change (2. order) :-0.7242215E-04  (-0.7403897E-04)
 number of electron     176.0000041 magnetization      -0.0000000
 augmentation part       -3.1160496 magnetization      -0.0000298

 Broyden mixing:
  rms(total) = 0.50259E-03    rms(broyden)= 0.48927E-03
  rms(prec ) = 0.54055E-03
  weight for this iteration     100.00

 eigenvalues of (default mixing * dielectric matrix)
  average eigenvalue GAMMA=   1.7979
  8.0770  2.9035  2.9035  2.5890  1.9990  1.9990  1.3252  1.0085  1.0085  0.8911
  0.8911  0.7497  0.7432  0.6285  0.5970  0.4531

 Free energy of the ion-electron system (eV)
  ---------------------------------------------------
  alpha Z        PSCENC =       144.47638627
  Ewald energy   TEWEN  =     -5351.30181053
  -Hartree energ DENC   =     -1332.38558587
  -exchange      EXHF   =         0.00000000
  -V(xc)+E(xc)   XCENC  =       248.33999544
  PAW double counting   =     16186.72212062   -16150.16695150
  entropy T*S    EENTRO =         0.00000000
  eigenvalues    EBANDS =     -1297.10431891
  atomic energy  EATOM  =      7362.44866298
  Solvation  Ediel_sol  =         0.00000000
  ---------------------------------------------------
  free energy    TOTEN  =      -188.97150151 eV

  energy without entropy =     -188.97150151  energy(sigma->0) =     -188.97150151


--------------------------------------------------------------------------------------------------------




--------------------------------------- Iteration      1(  22)  ---------------------------------------


    POTLOK:  cpu time    0.1174: real time    0.1174
    SETDIJ:  cpu time    0.2357: real time    0.2357
    EDDIAG:  cpu time    1.2516: real time    1.2517
  RMM-DIIS:  cpu time    4.7852: real time    4.7855
[...]
   35        1.054   1.466   0.000   2.520
   36        1.054   1.466   0.000   2.520
   37        1.059   1.459   0.000   2.518
   38        1.059   1.459   0.000   2.518
   39        1.059   1.459   0.000   2.518
   40        1.059   1.459   0.000   2.518
--------------------------------------------------
tot         53.786  40.756   0.000  94.542
 


 magnetization (x)
 
# of ion       s       p       d       tot
------------------------------------------
    1       -0.000   0.000   0.000  -0.000
    2       -0.000   0.000   0.000  -0.000
    3       -0.000   0.000   0.000  -0.000
    4       -0.000   0.000   0.000  -0.000
    5       -0.000   0.000   0.000   0.000
    6       -0.000   0.000   0.000   0.000
    7       -0.000   0.000   0.000   0.000
    8       -0.000   0.000   0.000   0.000
    9       -0.000   0.000   0.000   0.000
   10       -0.000   0.000   0.000   0.000
   11       -0.000   0.000   0.000   0.000
   12       -0.000   0.000   0.000   0.000
   13       -0.000   0.000   0.000   0.000
   14       -0.000   0.000   0.000   0.000
   15       -0.000   0.000   0.000   0.000
   16       -0.000   0.000   0.000   0.000
   17       -0.000   0.000   0.000   0.000
   18       -0.000   0.000   0.000   0.000
   19       -0.000   0.000   0.000   0.000
   20       -0.000   0.000   0.000   0.000
   21       -0.000  -0.000   0.000  -0.000
   22       -0.000  -0.000   0.000  -0.000
   23       -0.000  -0.000   0.000  -0.000
   24       -0.000  -0.000   0.000  -0.000
   25       -0.000   0.000   0.000   0.000
   26       -0.000   0.000   0.000   0.000
   27       -0.000   0.000   0.000   0.000
   28       -0.000   0.000   0.000   0.000
   29        0.000   0.000   0.000   0.000
   30        0.000   0.000   0.000   0.000
   31        0.000   0.000   0.000   0.000
   32        0.000   0.000   0.000   0.000
   33       -0.000   0.000   0.000   0.000
   34       -0.000   0.000   0.000   0.000
   35       -0.000   0.000   0.000   0.000
   36       -0.000   0.000   0.000   0.000
   37       -0.000   0.000   0.000   0.000
   38       -0.000   0.000   0.000   0.000
   39       -0.000   0.000   0.000   0.000
   40       -0.000   0.000   0.000   0.000
--------------------------------------------------
tot         -0.000   0.000   0.000   0.000
 
    CHARGE:  cpu time    0.2936: real time    0.2936
    FORLOC:  cpu time    0.0104: real time    0.0104
    FORNL :  cpu time    1.3533: real time    1.3535
    STRESS:  cpu time    4.1900: real time    4.1902
    FORCOR:  cpu time    0.1147: real time    0.1147
    FORHAR:  cpu time    0.0204: real time    0.0204
    MIXING:  cpu time    0.0032: real time    0.0032
    OFIELD:  cpu time    0.0000: real time    0.0000

  FORCE on cell =-STRESS in cart. coord.  units (eV):
  Direction    XX          YY          ZZ          XY          YZ          ZX
  --------------------------------------------------------------------------------------
  Alpha Z   144.94670   144.94670   144.94670
  Ewald   -1798.89671 -1762.74690 -1799.04984    -0.00000     0.00000    -0.00000
  Hartree   428.37102   462.94686   436.46260    -0.00000    -0.00000    -0.00000
  E(xc)    -634.54437  -634.60525  -634.48812     0.00000     0.00000     0.00000
  Local   -1313.82607 -1390.80129 -1326.21063     0.00000     0.00000     0.00000
  n-local  1397.84260  1399.28013  1396.71383     0.02479    -0.04344    -0.03852
  augment   -76.37648   -76.96299   -76.64626     0.00000     0.00000     0.00000
  Kinetic  1852.50009  1857.97236  1858.25866     0.27726    -0.03011     0.36533
  Fock        0.00000     0.00000     0.00000     0.00000     0.00000     0.00000
  -------------------------------------------------------------------------------------
  Total       0.01678     0.02961    -0.01306     0.00000     0.00000     0.00000
  in kB       0.03388     0.05979    -0.02637     0.00000     0.00000     0.00000
  external pressure =        0.02 kB  Pullay stress =        0.00 kB


 VOLUME and BASIS-vectors are now :
 -----------------------------------------------------------------------------
  energy-cutoff  :      520.00
  volume of cell :      793.55
      direct lattice vectors                 reciprocal lattice vectors
     7.622204745  0.000000000  0.000000000     0.131195636  0.000000000  0.000000000
     0.000000000  9.849368164  0.000000000     0.000000000  0.101529355  0.000000000
     0.000000000  0.000000000 10.570237952     0.000000000  0.000000000  0.094605250

  length of vectors
     7.622204745  9.849368164 10.570237952     0.131195636  0.101529355  0.094605250


 FORCES acting on ions
    electron-ion (+dipol)            ewald-force                    non-local-force                 convergence-correction
 -----------------------------------------------------------------------------------------------
   0.967E+01 0.228E+01 0.465E+01   -.102E+02 -.289E+01 -.447E+01   0.507E+00 0.612E+00 -.172E+00   0.182E-03 -.526E-04 -.588E-03
   0.967E+01 -.228E+01 -.465E+01   -.102E+02 0.289E+01 0.447E+01   0.507E+00 -.612E+00 0.172E+00   0.182E-03 0.526E-04 0.588E-03
   -.967E+01 0.228E+01 -.465E+01   0.102E+02 -.289E+01 0.447E+01   -.507E+00 0.612E+00 0.172E+00   -.182E-03 -.526E-04 0.588E-03
   -.967E+01 -.228E+01 0.465E+01   0.102E+02 0.289E+01 -.447E+01   -.507E+00 -.612E+00 -.172E+00   -.182E-03 0.526E-04 -.588E-03
   -.343E+01 0.859E+01 0.506E+01   0.253E+01 -.839E+01 -.461E+01   0.901E+00 -.196E+00 -.457E+00   -.170E-03 0.705E-04 0.591E-03
   -.343E+01 -.859E+01 -.506E+01   0.253E+01 0.839E+01 0.461E+01   0.901E+00 0.196E+00 0.457E+00   -.170E-03 -.705E-04 -.591E-03
   0.343E+01 0.859E+01 -.506E+01   -.253E+01 -.839E+01 0.461E+01   -.901E+00 -.196E+00 0.457E+00   0.170E-03 0.705E-04 -.591E-03
   0.343E+01 -.859E+01 0.506E+01   -.253E+01 0.839E+01 -.461E+01   -.901E+00 0.196E+00 -.457E+00   0.170E-03 -.705E-04 0.591E-03
   -.103E+02 0.423E+00 -.302E+01   0.968E+01 -.652E+00 0.257E+01   0.580E+00 0.229E+00 0.443E+00   0.221E-03 -.416E-03 -.872E-03
   -.103E+02 -.423E+00 0.302E+01   0.968E+01 0.652E+00 -.257E+01   0.580E+00 -.229E+00 -.443E+00   0.221E-03 0.416E-03 0.872E-03
   0.103E+02 0.423E+00 0.302E+01   -.968E+01 -.652E+00 -.257E+01   -.580E+00 0.229E+00 -.443E+00   -.221E-03 -.416E-03 0.872E-03
   0.103E+02 -.423E+00 -.302E+01   -.968E+01 0.652E+00 0.257E+01   -.580E+00 -.229E+00 0.443E+00   -.221E-03 0.416E-03 -.872E-03
   0.561E+02 0.374E+02 0.471E+02   -.594E+02 -.406E+02 -.500E+02   0.339E+01 0.318E+01 0.292E+01   -.170E-02 -.993E-03 -.276E-03
   0.561E+02 -.374E+02 -.471E+02   -.594E+02 0.406E+02 0.500E+02   0.339E+01 -.318E+01 -.292E+01   -.170E-02 0.993E-03 0.276E-03
   -.561E+02 0.374E+02 -.471E+02   0.594E+02 -.406E+02 0.500E+02   -.339E+01 0.318E+01 -.292E+01   0.170E-02 -.993E-03 0.276E-03
   -.561E+02 -.374E+02 0.471E+02   0.594E+02 0.406E+02 -.500E+02   -.339E+01 -.318E+01 0.292E+01   0.170E-02 0.993E-03 -.276E-03
   -.764E+02 -.386E+02 0.136E+02   0.807E+02 0.403E+02 -.148E+02   -.422E+01 -.174E+01 0.120E+01   -.304E-03 0.221E-02 0.158E-02
   -.764E+02 0.386E+02 -.136E+02   0.807E+02 -.403E+02 0.148E+02   -.422E+01 0.174E+01 -.120E+01   -.304E-03 -.221E-02 -.158E-02
   0.764E+02 -.386E+02 -.136E+02   -.807E+02 0.403E+02 0.148E+02   0.422E+01 -.174E+01 -.120E+01   0.304E-03 0.221E-02 -.158E-02
   0.764E+02 0.386E+02 0.136E+02   -.807E+02 -.403E+02 -.148E+02   0.422E+01 0.174E+01 0.120E+01   0.304E-03 -.221E-02 0.158E-02
   -.399E+02 0.196E+01 -.856E+02   0.419E+02 -.292E+01 0.900E+02   -.192E+01 0.952E+00 -.448E+01   0.760E-03 0.297E-02 -.468E-03
   -.399E+02 -.196E+01 0.856E+02   0.419E+02 0.292E+01 -.900E+02   -.192E+01 -.952E+00 0.448E+01   0.760E-03 -.297E-02 0.468E-03
   0.399E+02 0.196E+01 0.856E+02   -.419E+02 -.292E+01 -.900E+02   0.192E+01 0.952E+00 0.448E+01   -.760E-03 0.297E-02 0.468E-03
   0.399E+02 -.196E+01 -.856E+02   -.419E+02 0.292E+01 0.900E+02   0.192E+01 -.952E+00 -.448E+01   -.760E-03 -.297E-02 -.468E-03
   0.816E+01 -.819E+02 -.405E+02   -.841E+01 0.865E+02 0.437E+02   0.248E+00 -.463E+01 -.316E+01   0.329E-02 0.152E-02 0.105E-02
   0.816E+01 0.819E+02 0.405E+02   -.841E+01 -.865E+02 -.437E+02   0.248E+00 0.463E+01 0.316E+01   0.329E-02 -.152E-02 -.105E-02
   -.816E+01 -.819E+02 0.405E+02   0.841E+01 0.865E+02 -.437E+02   -.248E+00 -.463E+01 0.316E+01   -.329E-02 0.152E-02 -.105E-02
   -.816E+01 0.819E+02 -.405E+02   0.841E+01 -.865E+02 0.437E+02   -.248E+00 0.463E+01 -.316E+01   -.329E-02 -.152E-02 0.105E-02
   -.671E+02 0.444E+02 0.109E+02   0.702E+02 -.454E+02 -.120E+02   -.310E+01 0.107E+01 0.113E+01   0.199E-02 -.119E-02 -.790E-03
   -.671E+02 -.444E+02 -.109E+02   0.702E+02 0.454E+02 0.120E+02   -.310E+01 -.107E+01 -.113E+01   0.199E-02 0.119E-02 0.790E-03
   0.671E+02 0.444E+02 -.109E+02   -.702E+02 -.454E+02 0.120E+02   0.310E+01 0.107E+01 -.113E+01   -.199E-02 -.119E-02 0.790E-03
   0.671E+02 -.444E+02 0.109E+02   -.702E+02 0.454E+02 -.120E+02   0.310E+01 -.107E+01 0.113E+01   -.199E-02 0.119E-02 -.790E-03
   -.121E+02 -.615E+02 -.351E+02   0.131E+02 0.643E+02 0.369E+02   -.100E+01 -.287E+01 -.178E+01   0.352E-03 0.111E-02 -.163E-03
   -.121E+02 0.615E+02 0.351E+02   0.131E+02 -.643E+02 -.369E+02   -.100E+01 0.287E+01 0.178E+01   0.352E-03 -.111E-02 0.163E-03
   0.121E+02 -.615E+02 0.351E+02   -.131E+02 0.643E+02 -.369E+02   0.100E+01 -.287E+01 0.178E+01   -.352E-03 0.111E-02 0.163E-03
   0.121E+02 0.615E+02 -.351E+02   -.131E+02 -.643E+02 0.369E+02   0.100E+01 0.287E+01 -.178E+01   -.352E-03 -.111E-02 -.163E-03
   0.411E+02 -.194E+02 0.718E+02   -.427E+02 0.208E+02 -.750E+02   0.163E+01 -.136E+01 0.319E+01   -.132E-02 -.251E-03 -.190E-02
   0.411E+02 0.194E+02 -.718E+02   -.427E+02 -.208E+02 0.750E+02   0.163E+01 0.136E+01 -.319E+01   -.132E-02 0.251E-03 0.190E-02
   -.411E+02 -.194E+02 -.718E+02   0.427E+02 0.208E+02 0.750E+02   -.163E+01 -.136E+01 -.319E+01   0.132E-02 -.251E-03 0.190E-02
   -.411E+02 0.194E+02 0.718E+02   0.427E+02 -.208E+02 -.750E+02   -.163E+01 0.136E+01 0.319E+01   0.132E-02 0.251E-03 -.190E-02
 -----------------------------------------------------------------------------------------------
   -.739E-06 0.257E-06 0.172E-08   -.497E-13 -.320E-13 -.568E-13   -.888E-15 0.222E-15 0.133E-14   0.131E-11 0.119E-11 -.102E-11
 
 
 POSITION                                       TOTAL-FORCE (eV/Angst)
 -----------------------------------------------------------------------------------
      6.48028      3.02752      8.62756        -0.000908     -0.001708     -0.000467
      2.66918      1.89717      1.94268        -0.000908      0.001708      0.000467
      1.14192      7.95220      7.22780         0.000908     -0.001708      0.000467
      4.95302      6.82185      3.34244         0.000908      0.001708     -0.000467
      4.33473      0.25884      0.15897        -0.000304      0.001573      0.000444
      0.52363      4.66584     10.41127        -0.000304     -0.001573     -0.000444
      3.28748      5.18353      5.12615         0.000304      0.001573     -0.000444
      7.09858      9.59053      5.44409         0.000304     -0.001573      0.000444
      3.06350      2.96587      7.30429        -0.002455     -0.000125     -0.007833
      6.87461      1.95881      3.26595        -0.002455      0.000125      0.007833
      4.55870      7.89056      8.55107         0.002455     -0.000125      0.007833
      0.74760      6.88350      2.01917         0.002455      0.000125     -0.007833
      2.13854      8.61882      3.36589        -0.003735     -0.004303     -0.003494
      5.94964      6.15523      7.20434        -0.003735      0.004303      0.003494
      5.48366      3.69414      1.91923         0.003735     -0.004303      0.003494
      1.67256      1.23055      8.65101         0.003735      0.004303     -0.003494
      4.85942      0.47272      4.09818         0.003045     -0.001618      0.003440
      1.04832      4.45196      6.47205         0.003045      0.001618     -0.003440
      2.76279      5.39741      1.18694        -0.003045     -0.001618     -0.003440
      6.57389      9.37664      9.38330        -0.003045      0.001618      0.003440
      4.06671      9.28471      5.97897         0.000619     -0.003013      0.005759
      0.25561      5.48934      4.59127         0.000619      0.003013     -0.005759
      3.55549      4.36003      9.87639        -0.000619     -0.003013     -0.005759
      7.36660      0.56465      0.69385        -0.000619      0.003013      0.005759
      3.09175      1.31845      5.23079         0.001008     -0.002665      0.005267
      6.90286      3.60623      5.33945         0.001008      0.002665     -0.005267
      4.53045      6.24314      0.05433        -0.001008     -0.002665     -0.005267
      0.71935      8.53092     10.51591        -0.001008      0.002665      0.005267
      2.41411      9.13584      9.31422         0.005456      0.001697     -0.002095
      6.22521      5.63821      1.25602         0.005456     -0.001697      0.002095
      5.20810      4.21116      6.54113        -0.005456      0.001697      0.002095
      1.39700      0.71353      4.02910        -0.005456     -0.001697     -0.002095
      0.98362      2.15423     10.51300         0.002560      0.006492     -0.000143
      4.79472      2.77046      0.05724         0.002560     -0.006492      0.000143
      6.63859      7.07891      5.34235        -0.002560      0.006492      0.000143
      2.82748      7.69514      5.22788        -0.002560     -0.006492     -0.000143
      7.36497      0.69914      7.75737        -0.004199      0.001739     -0.005395
      3.55387      4.22554      2.81287        -0.004199     -0.001739      0.005395
      0.25723      5.62382      8.09799         0.004199      0.001739      0.005395
      4.06834      9.15023      2.47225         0.004199     -0.001739     -0.005395
 -----------------------------------------------------------------------------------
    total drift:                               -0.000001      0.000000      0.000000


--------------------------------------------------------------------------------------------------------



  FREE ENERGIE OF THE ION-ELECTRON SYSTEM (eV)
  ---------------------------------------------------
  free  energy   TOTEN  =      -188.97531332 eV

  energy  without entropy=     -188.97531332  energy(sigma->0) =     -188.97531332
 
 d Force = 0.4589620E-04[ 0.243E-05, 0.894E-04]  d Energy = 0.5790265E-04-0.120E-04
 d Force =-0.2623592E+00[-0.263E+00,-0.262E+00]  d Ewald  = 0.1407876E+00-0.403E+00


--------------------------------------------------------------------------------------------------------


    POTLOK:  cpu time    0.3416: real time    0.3417


--------------------------------------------------------------------------------------------------------




--------------------------------------------------------------------------------------------------------


  
 reached required accuracy - stopping structural energy minimisation
     LOOP+:  cpu time   26.2425: real time   28.0608
    4ORBIT:  cpu time    0.0000: real time    0.0000
 


 total charge     
 
# of ion       s       p       d       tot
------------------------------------------
    1        2.014   0.042   0.000   2.055
    2        2.014   0.042   0.000   2.055
    3        2.014   0.042   0.000   2.055
    4        2.014   0.042   0.000   2.055
    5        2.018   0.050   0.000   2.068
    6        2.018   0.050   0.000   2.068
    7        2.018   0.050   0.000   2.068
    8        2.018   0.050   0.000   2.068
    9        2.013   0.044   0.000   2.057
   10        2.013   0.044   0.000   2.057
   11        2.013   0.044   0.000   2.057
   12        2.013   0.044   0.000   2.057
   13        1.041   1.430   0.000   2.472
   14        1.041   1.430   0.000   2.472
   15        1.041   1.430   0.000   2.472
   16        1.041   1.430   0.000   2.472
   17        1.056   1.428   0.000   2.483
   18        1.056   1.428   0.000   2.483
   19        1.056   1.428   0.000   2.483
   20        1.056   1.428   0.000   2.483
   21        1.074   1.393   0.000   2.467
   22        1.074   1.393   0.000   2.467
   23        1.074   1.393   0.000   2.467
   24        1.074   1.393   0.000   2.467
   25        1.069   1.400   0.000   2.470
   26        1.069   1.400   0.000   2.470
   27        1.069   1.400   0.000   2.470
   28        1.069   1.400   0.000   2.470
   29        1.049   1.477   0.000   2.526
   30        1.049   1.477   0.000   2.526
   31        1.049   1.477   0.000   2.526
   32        1.049   1.477   0.000   2.526
   33        1.054   1.466   0.000   2.520
   34        1.054   1.466   0.000   2.520
   35        1.054   1.466   0.000   2.520
   36        1.054   1.466   0.000   2.520
   37        1.059   1.459   0.000   2.518
   38        1.059   1.459   0.000   2.518
   39        1.059   1.459   0.000   2.518
   40        1.059   1.459   0.000   2.518
--------------------------------------------------
tot         53.786  40.756   0.000  94.542
 


 magnetization (x)
 
# of ion       s       p       d       tot
------------------------------------------
    1       -0.000   0.000   0.000  -0.000
    2       -0.000   0.000   0.000  -0.000
    3       -0.000   0.000   0.000  -0.000
    4       -0.000   0.000   0.000  -0.000
    5       -0.000   0.000   0.000   0.000
    6       -0.000   0.000   0.000   0.000
    7       -0.000   0.000   0.000   0.000
    8       -0.000   0.000   0.000   0.000
    9       -0.000   0.000   0.000   0.000
   10       -0.000   0.000   0.000   0.000
   11       -0.000   0.000   0.000   0.000
   12       -0.000   0.000   0.000   0.000
   13       -0.000   0.000   0.000   0.000
   14       -0.000   0.000   0.000   0.000
   15       -0.000   0.000   0.000   0.000
   16       -0.000   0.000   0.000   0.000
   17       -0.000   0.000   0.000   0.000
   18       -0.000   0.000   0.000   0.000
   19       -0.000   0.000   0.000   0.000
   20       -0.000   0.000   0.000   0.000
   21       -0.000  -0.000   0.000  -0.000
   22       -0.000  -0.000   0.000  -0.000
   23       -0.000  -0.000   0.000  -0.000
   24       -0.000  -0.000   0.000  -0.000
   25       -0.000   0.000   0.000   0.000
   26       -0.000   0.000   0.000   0.000
   27       -0.000   0.000   0.000   0.000
   28       -0.000   0.000   0.000   0.000
   29        0.000   0.000   0.000   0.000
   30        0.000   0.000   0.000   0.000
   31        0.000   0.000   0.000   0.000
   32        0.000   0.000   0.000   0.000
   33       -0.000   0.000   0.000   0.000
   34       -0.000   0.000   0.000   0.000
   35       -0.000   0.000   0.000   0.000
   36       -0.000   0.000   0.000   0.000
   37       -0.000   0.000   0.000   0.000
   38       -0.000   0.000   0.000   0.000
   39       -0.000   0.000   0.000   0.000
   40       -0.000   0.000   0.000   0.000
--------------------------------------------------
tot         -0.000   0.000   0.000   0.000
 
 BZINTS: Fermi energy:    5.372417;  176.000000 electrons
         Band energy:-0.129302E+04;  BLOECHL correction:    0.000000

 total amount of memory used by VASP MPI-rank0    69380. kBytes
=======================================================================

   base      :      30000. kBytes
   nonlr-proj:       3952. kBytes
   fftplans  :       4423. kBytes
   grid      :      11351. kBytes
   one-center:         43. kBytes
   wavefun   :      19611. kBytes
 
  
  
 General timing and accounting informations for this job:
 ========================================================
  
                  Total CPU time used (sec):      858.087
                            User time (sec):      852.071
                          System time (sec):        6.016
                         Elapsed time (sec):      874.778
  
                   Maximum memory used (kb):      109152.
                   Average memory used (kb):           0.
  
                          Minor page faults:       306696
                          Major page faults:           16
                 Voluntary context switches:         1057
