 running on   12 total cores
 distrk:  each k-point on   12 cores,    1 groups
 distr:  one band on    6 cores,    2 groups
 using from now: INCAR     
 vasp.6.1.2 22Jul20 (build Mar 20 2021 11:25:07) complex                        
  
 POSCAR found type information on POSCAR LiO 
 POSCAR found :  2 types and       9 ions
 scaLAPACK will be used
 LDA part: xc-table for Pade appr. of Perdew
 generate k-points for:    7    7    7
 POSCAR, INCAR and KPOINTS ok, starting setup
 FFT: planning ...
 WAVECAR not read
 entering main loop
       N       E                     dE             d eps       ncg     rms          rms(c)
DAV:   1     0.358970807367E+03    0.35897E+03   -0.27394E+04 13600   0.145E+03
DAV:   2    -0.142399315136E+02   -0.37321E+03   -0.35978E+03 17892   0.339E+02
DAV:   3    -0.412290966937E+02   -0.26989E+02   -0.26552E+02 19546   0.920E+01
DAV:   4    -0.422889164135E+02   -0.10598E+01   -0.10557E+01 22866   0.131E+01
DAV:   5    -0.423645335106E+02   -0.75617E-01   -0.75611E-01 17650   0.184E+00    0.140E+01
RMM:   6    -0.427895999314E+02   -0.42507E+00   -0.22945E+00 15070   0.770E+00    0.901E+00
RMM:   7    -0.425678474975E+02    0.22175E+00   -0.89243E-01 14723   0.498E+00    0.603E+00
RMM:   8    -0.424009125860E+02    0.16693E+00   -0.39533E-01 15200   0.348E+00    0.442E+00
RMM:   9    -0.422953946203E+02    0.10552E+00   -0.16389E-01 15926   0.221E+00    0.216E+00
RMM:  10    -0.422910680513E+02    0.43266E-02   -0.51367E-02 16477   0.134E+00    0.767E-01
RMM:  11    -0.422914613356E+02   -0.39328E-03   -0.12099E-02 18607   0.654E-01    0.439E-01
RMM:  12    -0.422913395301E+02    0.12181E-03   -0.52583E-03 18846   0.455E-01    0.199E-01
RMM:  13    -0.422920353974E+02   -0.69587E-03   -0.25962E-03 20842   0.298E-01    0.744E-02
WARNING in EDDRMM: call to ZHEGV failed, returncode =   6  3     14
RMM:  14    -0.422922708707E+02   -0.23547E-03   -0.11319E-03 23542   0.166E-01    0.543E-02
WARNING in EDDRMM: call to ZHEGV failed, returncode =   8  4     16
WARNING in EDDRMM: call to ZHEGV failed, returncode =   6  3      2
WARNING in EDDRMM: call to ZHEGV failed, returncode =   6  3     13
RMM:  15    -0.422924204279E+02   -0.14956E-03   -0.51890E-04 23602   0.106E-01    0.420E-02
RMM:  16    -0.422925554745E+02   -0.13505E-03   -0.30153E-04 22216   0.912E-02    0.268E-02
WARNING in EDDRMM: call to ZHEGV failed, returncode =   8  4      5
WARNING in EDDRMM: call to ZHEGV failed, returncode =   6  3     16
RMM:  17    -0.422926231668E+02   -0.67692E-04   -0.17564E-04 21428   0.670E-02    0.233E-02
WARNING in EDDRMM: call to ZHEGV failed, returncode =   6  3      5
RMM:  18    -0.422926792554E+02   -0.56089E-04   -0.10969E-04 20650   0.556E-02    0.201E-02
WARNING in EDDRMM: call to ZHEGV failed, returncode =   8  4      5
RMM:  19    -0.422927498138E+02   -0.70558E-04   -0.11697E-04 21194   0.576E-02    0.182E-02
WARNING in EDDRMM: call to ZHEGV failed, returncode =   8  4      5
WARNING in EDDRMM: call to ZHEGV failed, returncode =   6  3     16
RMM:  20    -0.422928269228E+02   -0.77109E-04   -0.14705E-04 22293   0.654E-02    0.160E-02
RMM:  21    -0.422928824206E+02   -0.55498E-04   -0.99416E-05 20910   0.532E-02    0.139E-02
RMM:  22    -0.422929867251E+02   -0.10430E-03   -0.71037E-04 25486   0.142E-01    0.152E-02
RMM:  23    -0.422930465800E+02   -0.59855E-04   -0.27241E-04 24171   0.845E-02    0.111E-02
RMM:  24    -0.422930780474E+02   -0.31467E-04   -0.10577E-04 21002   0.545E-02    0.724E-03
RMM:  25    -0.422930913701E+02   -0.13323E-04   -0.11722E-04 20910   0.588E-02    0.623E-03
WARNING in EDDRMM: call to ZHEGV failed, returncode =   8  4     16
RMM:  26    -0.422931000619E+02   -0.86918E-05   -0.58385E-05 18117   0.416E-02
   1 F= -.42293100E+02 E0= -.42293100E+02  d E =0.000000E+00  mag=     0.0047
 -----------------------------------------------------------------------------
|                                                                             |
|           W    W    AA    RRRRR   N    N  II  N    N   GGGG   !!!           |
|           W    W   A  A   R    R  NN   N  II  NN   N  G    G  !!!           |
|           W    W  A    A  R    R  N N  N  II  N N  N  G       !!!           |
|           W WW W  AAAAAA  RRRRR   N  N N  II  N  N N  G  GGG   !            |
|           WW  WW  A    A  R   R   N   NN  II  N   NN  G    G                |
|           W    W  A    A  R    R  N    N  II  N    N   GGGG   !!!           |
|                                                                             |
|     Tetrahedron method does not include variations of the Fermi             |
|     occupations, so forces and stress will be inaccurate. We suggest        |
|     using a different smearing scheme ISMEAR = 1 or 2 for metals in         |
|     relaxations.                                                            |
|                                                                             |
 -----------------------------------------------------------------------------

