       N       E                     dE             d eps       ncg     rms          rms(c)
DAV:   1     0.616960058151E+02    0.61696E+02   -0.64685E+03 13448   0.120E+03
DAV:   2    -0.890265580474E+01   -0.70599E+02   -0.66159E+02 17576   0.255E+02
DAV:   3    -0.182066012405E+02   -0.93039E+01   -0.92461E+01 22696   0.731E+01
DAV:   4    -0.187899094829E+02   -0.58331E+00   -0.58268E+00 19404   0.173E+01
DAV:   5    -0.187982156730E+02   -0.83062E-02   -0.83058E-02 19544   0.230E+00    0.143E+01
RMM:   6    -0.155318224912E+02    0.32664E+01   -0.86172E+00 15618   0.164E+01    0.643E+00
RMM:   7    -0.155829800376E+02   -0.51158E-01   -0.74102E-01 18416   0.904E+00    0.258E+00
RMM:   8    -0.155300503495E+02    0.52930E-01   -0.32943E-01 21950   0.392E+00    0.147E+00
RMM:   9    -0.155330944192E+02   -0.30441E-02   -0.15260E-01 20843   0.313E+00    0.477E-01
RMM:  10    -0.155392240848E+02   -0.61297E-02   -0.64146E-02 23607   0.181E+00    0.279E-01
RMM:  11    -0.155426692672E+02   -0.34452E-02   -0.26372E-02 23864   0.944E-01    0.151E-01
RMM:  12    -0.155438577562E+02   -0.11885E-02   -0.99610E-03 23774   0.671E-01    0.575E-02
RMM:  13    -0.155445050480E+02   -0.64729E-03   -0.49265E-03 23719   0.413E-01    0.480E-02
RMM:  14    -0.155447319720E+02   -0.22692E-03   -0.20467E-03 22850   0.257E-01    0.203E-02
RMM:  15    -0.155448388344E+02   -0.10686E-03   -0.97626E-04 21883   0.168E-01    0.414E-03
RMM:  16    -0.155448910795E+02   -0.52245E-04   -0.43012E-04 20342   0.112E-01    0.576E-03
RMM:  17    -0.155449132012E+02   -0.22122E-04   -0.19873E-04 19092   0.774E-02    0.159E-03
RMM:  18    -0.155449240818E+02   -0.10881E-04   -0.93131E-05 18112   0.582E-02    0.931E-04
RMM:  19    -0.155449289190E+02   -0.48372E-05   -0.41721E-05 16817   0.462E-02
   1 F= -.15544929E+02 E0= -.15544929E+02  d E =0.000000E+00  mag=    -0.0000
