       N       E                     dE             d eps       ncg     rms          rms(c)
DAV:   1     0.357862230808E+03    0.35786E+03   -0.27485E+04 13600   0.145E+03
DAV:   2    -0.154814433891E+02   -0.37334E+03   -0.36015E+03 17962   0.342E+02
DAV:   3    -0.419160004390E+02   -0.26435E+02   -0.26040E+02 19868   0.914E+01
DAV:   4    -0.429258611947E+02   -0.10099E+01   -0.10059E+01 22746   0.129E+01
DAV:   5    -0.430018946913E+02   -0.76033E-01   -0.76026E-01 17770   0.180E+00    0.141E+01
RMM:   6    -0.433890552158E+02   -0.38716E+00   -0.24049E+00 15278   0.790E+00    0.906E+00
RMM:   7    -0.431469287862E+02    0.24213E+00   -0.90617E-01 14813   0.504E+00    0.593E+00
RMM:   8    -0.429851714608E+02    0.16176E+00   -0.41377E-01 15237   0.358E+00    0.443E+00
RMM:   9    -0.428805958148E+02    0.10458E+00   -0.16915E-01 16007   0.225E+00    0.222E+00
RMM:  10    -0.428744571806E+02    0.61386E-02   -0.53545E-02 16412   0.136E+00    0.793E-01
RMM:  11    -0.428740023061E+02    0.45487E-03   -0.12118E-02 18505   0.658E-01    0.424E-01
RMM:  12    -0.428742019742E+02   -0.19967E-03   -0.51863E-03 18777   0.460E-01    0.183E-01
RMM:  13    -0.428748771335E+02   -0.67516E-03   -0.24522E-03 21127   0.288E-01    0.649E-02
RMM:  14    -0.428750817291E+02   -0.20460E-03   -0.10235E-03 23655   0.156E-01    0.477E-02
RMM:  15    -0.428752246988E+02   -0.14297E-03   -0.47869E-04 23265   0.103E-01    0.353E-02
RMM:  16    -0.428753222784E+02   -0.97580E-04   -0.26157E-04 22634   0.808E-02    0.237E-02
RMM:  17    -0.428753775677E+02   -0.55289E-04   -0.14680E-04 21195   0.605E-02    0.200E-02
RMM:  18    -0.428754219498E+02   -0.44382E-04   -0.85681E-05 19719   0.494E-02    0.168E-02
RMM:  19    -0.428754737466E+02   -0.51797E-04   -0.84868E-05 20048   0.489E-02    0.154E-02
RMM:  20    -0.428755246872E+02   -0.50941E-04   -0.86962E-05 20383   0.496E-02    0.139E-02
RMM:  21    -0.428755704930E+02   -0.45806E-04   -0.80533E-05 20322   0.474E-02    0.124E-02
RMM:  22    -0.428756659188E+02   -0.95426E-04   -0.62459E-04 25136   0.134E-01    0.139E-02
RMM:  23    -0.428757194279E+02   -0.53509E-04   -0.20924E-04 23631   0.745E-02    0.982E-03
RMM:  24    -0.428757501269E+02   -0.30699E-04   -0.14526E-04 22069   0.633E-02    0.765E-03
RMM:  25    -0.428757643995E+02   -0.14273E-04   -0.99606E-05 20410   0.535E-02    0.579E-03
RMM:  26    -0.428757728702E+02   -0.84707E-05   -0.46048E-05 15748   0.369E-02
   1 F= -.42875773E+02 E0= -.42875773E+02  d E =0.000000E+00  mag=     0.0051
