    8    8    1    2
  0.9140654E+01  0.4676938E-09  0.4871811E-09  0.4871811E-09  0.5000000E-15
  1.000000000000000E-004
  CAR 
 unknown system                          
     36    362     26
 
  0.0000000E+00  0.0000000E+00  0.0000000E+00  0.1388889E-02
    1      -38.159856    -38.159681   1.000000   1.000000
    2      -38.131989    -38.131815   1.000000   1.000000
    3      -13.935602    -13.935628   1.000000   1.000000
    4       -9.368219     -9.368259   1.000000   1.000000
    5       -9.284627     -9.284667   1.000000   1.000000
    6       -8.925541     -8.925582   1.000000   1.000000
    7       -6.960127     -6.960157   1.000000   1.000000
    8       -2.183212     -2.183235   1.000000   1.000000
    9       -2.095928     -2.095951   1.000000   1.000000
   10       -1.430082     -1.430108   1.000000   1.000000
   11        1.216353      1.216326   1.000000   1.000000
   12        2.360603      2.360594   1.000000   1.000000
   13        2.595508      2.595489   1.000000   1.000000
   14        3.661932      3.661916   1.000000   1.000000
   15        3.707521      3.707500   1.000000   1.000000
   16        4.103215      4.103188   1.000000   1.000000
   17        4.178736      4.178712   1.000000   1.000000
   18        4.330796      4.330759   1.000000   1.000000
   19        8.991128      8.991166   0.000000   0.000000
   20       11.620949     11.620976   0.000000   0.000000
   21       13.836271     13.836249   0.000000   0.000000
   22       14.097402     14.097420   0.000000   0.000000
   23       14.180849     14.180842   0.000000   0.000000
   24       14.232536     14.232539   0.000000   0.000000
   25       15.243694     15.243507   0.000000   0.000000
   26       15.774363     15.764417   0.000000   0.000000
 
  0.1111111E+00 -0.1197106E-16  0.4677743E-16  0.2777778E-02
    1      -38.159090    -38.158915   1.000000   1.000000
    2      -38.132698    -38.132524   1.000000   1.000000
    3      -13.864278    -13.864312   1.000000   1.000000
    4       -9.679819     -9.679859   1.000000   1.000000
    5       -9.285250     -9.285290   1.000000   1.000000
    6       -8.969212     -8.969253   1.000000   1.000000
    7       -6.657947     -6.657979   1.000000   1.000000
    8       -2.185968     -2.185992   1.000000   1.000000
    9       -2.096438     -2.096461   1.000000   1.000000
   10       -1.345488     -1.345515   1.000000   1.000000
   11        1.148057      1.148032   1.000000   1.000000
   12        2.460412      2.460400   1.000000   1.000000
   13        2.583586      2.583567   1.000000   1.000000
   14        3.669158      3.669134   1.000000   1.000000
   15        3.720673      3.720648   1.000000   1.000000
   16        4.091555      4.091527   1.000000   1.000000
   17        4.122157      4.122133   1.000000   1.000000
   18        4.245826      4.245803   1.000000   1.000000
   19        9.284373      9.284407   0.000000   0.000000
   20       11.751482     11.751507   0.000000   0.000000
   21       13.359496     13.359304   0.000000   0.000000
   22       13.805623     13.805536   0.000000   0.000000
   23       14.066683     14.066487   0.000000   0.000000
   24       14.581202     14.578376   0.000000   0.000000
   25       14.925227     14.859200   0.000000   0.000000
   26       16.124489     15.882500   0.000000   0.000000
 
  0.2222222E+00  0.5174675E-17  0.6443806E-16  0.2777778E-02
    1      -38.156971    -38.156796   1.000000   1.000000
    2      -38.134707    -38.134532   1.000000   1.000000
    3      -13.657129    -13.657159   1.000000   1.000000
    4      -10.326202    -10.326239   1.000000   1.000000
    5       -9.335500     -9.335538   1.000000   1.000000
    6       -9.028072     -9.028111   1.000000   1.000000
    7       -6.058154     -6.058187   1.000000   1.000000
    8       -2.243203     -2.243227   1.000000   1.000000
    9       -1.996805     -1.996829   1.000000   1.000000
   10       -1.165338     -1.165365   1.000000   1.000000
   11        1.065022      1.065001   1.000000   1.000000
   12        2.550724      2.550705   1.000000   1.000000
   13        2.665520      2.665499   1.000000   1.000000
   14        3.113256      3.113238   1.000000   1.000000
   15        3.712788      3.712758   1.000000   1.000000
   16        3.924112      3.924081   1.000000   1.000000
   17        4.203509      4.203495   1.000000   1.000000
   18        4.591869      4.591843   1.000000   1.000000
   19       10.076514     10.076542   0.000000   0.000000
   20       11.982599     11.982626   0.000000   0.000000
   21       12.528636     12.528628   0.000000   0.000000
   22       13.342901     13.342911   0.000000   0.000000
   23       13.718003     13.718002   0.000000   0.000000
   24       14.910590     14.910376   0.000000   0.000000
   25       15.049516     15.050603   0.000000   0.000000
   26       16.133873     16.076186   0.000000   0.000000
 
  0.3333333E+00 -0.1821034E-16  0.9487387E-16  0.2777778E-02
    1      -38.153974    -38.153799   1.000000   1.000000
    2      -38.137603    -38.137429   1.000000   1.000000
    3      -13.343419    -13.343447   1.000000   1.000000
    4      -11.014398    -11.014435   1.000000   1.000000
    5       -9.378984     -9.379022   1.000000   1.000000
    6       -9.096650     -9.096689   1.000000   1.000000
    7       -5.501933     -5.501965   1.000000   1.000000
    8       -2.304338     -2.304366   1.000000   1.000000
    9       -1.768383     -1.768409   1.000000   1.000000
   10       -1.052176     -1.052205   1.000000   1.000000
   11        1.141942      1.141922   1.000000   1.000000
   12        2.243858      2.243838   1.000000   1.000000
   13        2.468171      2.468153   1.000000   1.000000
   14        2.916896      2.916877   1.000000   1.000000
   15        3.606727      3.606705   1.000000   1.000000
   16        3.819706      3.819677   1.000000   1.000000
   17        4.457575      4.457556   1.000000   1.000000
   18        5.008625      5.008591   1.000000   1.000000
   19       11.132257     11.132271   0.000000   0.000000
   20       11.776093     11.776099   0.000000   0.000000
   21       12.199303     12.199328   0.000000   0.000000
   22       13.156103     13.156096   0.000000   0.000000
   23       13.307550     13.307551   0.000000   0.000000
   24       15.036829     15.037014   0.000000   0.000000
   25       15.459169     15.411200   0.000000   0.000000
   26       16.116371     16.177623   0.000000   0.000000
 
  0.4444444E+00  0.1034935E-16  0.1288761E-15  0.2777778E-02
    1      -38.151233    -38.151057   1.000000   1.000000
    2      -38.140318    -38.140144   1.000000   1.000000
    3      -13.031403    -13.031433   1.000000   1.000000
    4      -11.530810    -11.530844   1.000000   1.000000
    5       -9.396841     -9.396879   1.000000   1.000000
    6       -9.149998     -9.150036   1.000000   1.000000
    7       -5.177253     -5.177283   1.000000   1.000000
    8       -2.312972     -2.313003   1.000000   1.000000
    9       -1.527242     -1.527272   1.000000   1.000000
   10       -1.074151     -1.074178   1.000000   1.000000
   11        1.365173      1.365157   1.000000   1.000000
   12        1.717613      1.717596   1.000000   1.000000
   13        2.175589      2.175572   1.000000   1.000000
   14        3.200267      3.200242   1.000000   1.000000
   15        3.496655      3.496631   1.000000   1.000000
   16        3.685339      3.685322   1.000000   1.000000
   17        4.691989      4.691963   1.000000   1.000000
   18        5.238146      5.238107   0.999976   1.000000
   19       11.312255     11.312259   0.000000   0.000000
   20       11.958186     11.958200   0.000000   0.000000
   21       12.607817     12.607825   0.000000   0.000000
   22       12.942405     12.942392   0.000000   0.000000
   23       13.284949     13.284932   0.000000   0.000000
   24       14.904565     14.906270   0.000000   0.000000
   25       15.344480     15.367878   0.000000   0.000000
   26       15.588557     15.586204   0.000000   0.000000
 
 -0.7819064E-17  0.1250000E+00  0.2436750E-16  0.2777778E-02
    1      -38.159157    -38.158982   1.000000   1.000000
    2      -38.132696    -38.132522   1.000000   1.000000
    3      -13.861501    -13.861528   1.000000   1.000000
    4       -9.605289     -9.605327   1.000000   1.000000
    5       -9.355554     -9.355595   1.000000   1.000000
    6       -9.033762     -9.033802   1.000000   1.000000
    7       -6.584657     -6.584689   1.000000   1.000000
    8       -2.168506     -2.168530   1.000000   1.000000
    9       -2.089642     -2.089666   1.000000   1.000000
   10       -1.355548     -1.355575   1.000000   1.000000
   11        1.162867      1.162842   1.000000   1.000000
   12        2.473915      2.473901   1.000000   1.000000
   13        2.586560      2.586541   1.000000   1.000000
   14        3.495211      3.495187   1.000000   1.000000
   15        3.734779      3.734757   1.000000   1.000000
   16        4.044127      4.044108   1.000000   1.000000
   17        4.180192      4.180164   1.000000   1.000000
   18        4.315568      4.315540   1.000000   1.000000
   19        9.318138      9.318173   0.000000   0.000000
   20       11.863394     11.863416   0.000000   0.000000
   21       13.201841     13.201845   0.000000   0.000000
   22       13.413410     13.413412   0.000000   0.000000
   23       14.238101     14.238098   0.000000   0.000000
   24       14.527562     14.527437   0.000000   0.000000
   25       15.302458     15.308615   0.000000   0.000000
   26       15.977487     15.955132   0.000000   0.000000
 
  0.1111111E+00  0.1250000E+00  0.7808382E-16  0.2777778E-02
    1      -38.157895    -38.157720   1.000000   1.000000
    2      -38.133887    -38.133713   1.000000   1.000000
    3      -13.743060    -13.743089   1.000000   1.000000
    4      -10.045448    -10.045485   1.000000   1.000000
    5       -9.342337     -9.342376   1.000000   1.000000
    6       -9.091745     -9.091784   1.000000   1.000000
    7       -6.171664     -6.171697   1.000000   1.000000
    8       -2.222348     -2.222371   1.000000   1.000000
    9       -1.935026     -1.935052   1.000000   1.000000
   10       -1.315534     -1.315561   1.000000   1.000000
   11        1.149133      1.149110   1.000000   1.000000
   12        2.507721      2.507703   1.000000   1.000000
   13        2.580400      2.580380   1.000000   1.000000
   14        3.293977      3.293955   1.000000   1.000000
   15        3.677417      3.677389   1.000000   1.000000
   16        4.007328      4.007299   1.000000   1.000000
   17        4.245598      4.245579   1.000000   1.000000
   18        4.329187      4.329166   1.000000   1.000000
   19        9.791286      9.791317   0.000000   0.000000
   20       11.890283     11.890305   0.000000   0.000000
   21       12.811879     12.811877   0.000000   0.000000
   22       13.274491     13.274497   0.000000   0.000000
   23       14.025044     14.025028   0.000000   0.000000
   24       14.659680     14.659487   0.000000   0.000000
   25       14.989458     14.988881   0.000000   0.000000
   26       15.821625     15.825680   0.000000   0.000000
 
  0.2222222E+00  0.1250000E+00  0.3128319E-16  0.2777778E-02
    1      -38.155459    -38.155283   1.000000   1.000000
    2      -38.136236    -38.136062   1.000000   1.000000
    3      -13.494599    -13.494629   1.000000   1.000000
    4      -10.684148    -10.684184   1.000000   1.000000
    5       -9.391114     -9.391153   1.000000   1.000000
    6       -9.130559     -9.130598   1.000000   1.000000
    7       -5.618296     -5.618329   1.000000   1.000000
    8       -2.334806     -2.334831   1.000000   1.000000
    9       -1.736458     -1.736484   1.000000   1.000000
   10       -1.161380     -1.161409   1.000000   1.000000
   11        1.170355      1.170335   1.000000   1.000000
   12        2.309542      2.309521   1.000000   1.000000
   13        2.487237      2.487219   1.000000   1.000000
   14        3.026149      3.026132   1.000000   1.000000
   15        3.572575      3.572548   1.000000   1.000000
   16        3.997026      3.996994   1.000000   1.000000
   17        4.387750      4.387731   1.000000   1.000000
   18        4.670376      4.670350   1.000000   1.000000
   19       10.649913     10.649937   0.000000   0.000000
   20       11.784120     11.784141   0.000000   0.000000
   21       12.274433     12.274435   0.000000   0.000000
   22       13.204989     13.204986   0.000000   0.000000
   23       13.659555     13.659541   0.000000   0.000000
   24       14.575651     14.575624   0.000000   0.000000
   25       15.181026     15.181218   0.000000   0.000000
   26       16.054862     16.055231   0.000000   0.000000
 
  0.3333333E+00  0.1250000E+00  0.8947457E-16  0.2777778E-02
    1      -38.152342    -38.152166   1.000000   1.000000
    2      -38.139227    -38.139053   1.000000   1.000000
    3      -13.157460    -13.157489   1.000000   1.000000
    4      -11.309323    -11.309358   1.000000   1.000000
    5       -9.424792     -9.424829   1.000000   1.000000
    6       -9.182748     -9.182786   1.000000   1.000000
    7       -5.163030     -5.163062   1.000000   1.000000
    8       -2.426957     -2.426986   1.000000   1.000000
    9       -1.518978     -1.519006   1.000000   1.000000
   10       -1.071687     -1.071715   1.000000   1.000000
   11        1.335409      1.335391   1.000000   1.000000
   12        1.719282      1.719268   1.000000   1.000000
   13        2.388097      2.388079   1.000000   1.000000
   14        3.024042      3.024019   1.000000   1.000000
   15        3.567456      3.567435   1.000000   1.000000
   16        3.945374      3.945344   1.000000   1.000000
   17        4.564771      4.564748   1.000000   1.000000
   18        5.026921      5.026887   1.000000   1.000000
   19       11.490376     11.490384   0.000000   0.000000
   20       11.647980     11.647989   0.000000   0.000000
   21       12.056349     12.056366   0.000000   0.000000
   22       12.984880     12.984888   0.000000   0.000000
   23       13.591661     13.591647   0.000000   0.000000
   24       14.630343     14.630356   0.000000   0.000000
   25       15.422313     15.428695   0.000000   0.000000
   26       16.048136     16.062353   0.000000   0.000000
 
  0.4444444E+00  0.1250000E+00  0.2067436E-15  0.2777778E-02
    1      -38.150189    -38.150013   1.000000   1.000000
    2      -38.141331    -38.141158   1.000000   1.000000
    3      -12.901219    -12.901248   1.000000   1.000000
    4      -11.683939    -11.683972   1.000000   1.000000
    5       -9.436097     -9.436135   1.000000   1.000000
    6       -9.206601     -9.206639   1.000000   1.000000
    7       -4.974192     -4.974222   1.000000   1.000000
    8       -2.502302     -2.502335   1.000000   1.000000
    9       -1.408459     -1.408488   1.000000   1.000000
   10       -1.020008     -1.020036   1.000000   1.000000
   11        1.246505      1.246496   1.000000   1.000000
   12        1.688122      1.688100   1.000000   1.000000
   13        2.210129      2.210112   1.000000   1.000000
   14        3.203337      3.203309   1.000000   1.000000
   15        3.564075      3.564055   1.000000   1.000000
   16        3.845051      3.845028   1.000000   1.000000
   17        4.677318      4.677292   1.000000   1.000000
   18        5.178279      5.178241   1.000000   1.000000
   19       11.207371     11.207374   0.000000   0.000000
   20       12.044186     12.044197   0.000000   0.000000
   21       12.460232     12.460227   0.000000   0.000000
   22       12.872271     12.872268   0.000000   0.000000
   23       13.728755     13.728763   0.000000   0.000000
   24       14.851179     14.851178   0.000000   0.000000
   25       15.234278     15.238134   0.000000   0.000000
   26       15.456204     15.459415   0.000000   0.000000
 
 -0.4444444E+00  0.1250000E+00 -0.8122811E-16  0.2777778E-02
    1      -38.151505    -38.151329   1.000000   1.000000
    2      -38.140038    -38.139864   1.000000   1.000000
    3      -13.054122    -13.054151   1.000000   1.000000
    4      -11.460441    -11.460475   1.000000   1.000000
    5       -9.433362     -9.433400   1.000000   1.000000
    6       -9.169489     -9.169527   1.000000   1.000000
    7       -5.128079     -5.128110   1.000000   1.000000
    8       -2.578350     -2.578379   1.000000   1.000000
    9       -1.519069     -1.519097   1.000000   1.000000
   10       -0.909134     -0.909163   1.000000   1.000000
   11        1.087046      1.087030   1.000000   1.000000
   12        1.808121      1.808110   1.000000   1.000000
   13        2.484847      2.484823   1.000000   1.000000
   14        3.305355      3.305327   1.000000   1.000000
   15        3.502839      3.502812   1.000000   1.000000
   16        3.796983      3.796965   1.000000   1.000000
   17        4.593698      4.593674   1.000000   1.000000
   18        5.127768      5.127732   1.000013   1.000000
   19       11.231222     11.231230   0.000000   0.000000
   20       11.840454     11.840475   0.000000   0.000000
   21       12.367094     12.367087   0.000000   0.000000
   22       13.156314     13.156186   0.000000   0.000000
   23       13.660069     13.659966   0.000000   0.000000
   24       14.832225     14.830662   0.000000   0.000000
   25       15.315737     15.300793   0.000000   0.000000
   26       15.854504     15.484034   0.000000   0.000000
 
 -0.3333333E+00  0.1250000E+00 -0.6356748E-16  0.2777778E-02
    1      -38.154507    -38.154332   1.000000   1.000000
    2      -38.137063    -38.136889   1.000000   1.000000
    3      -13.394879    -13.394910   1.000000   1.000000
    4      -10.875034    -10.875069   1.000000   1.000000
    5       -9.404884     -9.404922   1.000000   1.000000
    6       -9.094686     -9.094725   1.000000   1.000000
    7       -5.570385     -5.570417   1.000000   1.000000
    8       -2.597258     -2.597282   1.000000   1.000000
    9       -1.692483     -1.692510   1.000000   1.000000
   10       -0.909781     -0.909811   1.000000   1.000000
   11        0.894972      0.894955   1.000000   1.000000
   12        2.375381      2.375361   1.000000   1.000000
   13        2.750988      2.750964   1.000000   1.000000
   14        3.099857      3.099839   1.000000   1.000000
   15        3.621234      3.621202   1.000000   1.000000
   16        3.810169      3.810145   1.000000   1.000000
   17        4.384965      4.384949   1.000000   1.000000
   18        4.878194      4.878163   1.000000   1.000000
   19       10.785189     10.785212   0.000000   0.000000
   20       11.877432     11.877376   0.000000   0.000000
   21       12.358246     12.358248   0.000000   0.000000
   22       13.274877     13.274794   0.000000   0.000000
   23       13.614960     13.614972   0.000000   0.000000
   24       14.669650     14.661523   0.000000   0.000000
   25       15.473853     15.315191   0.000000   0.000000
   26       16.768652     15.897434   0.000000   0.000000
 
 -0.2222222E+00  0.1250000E+00 -0.3189975E-16  0.2777778E-02
    1      -38.157248    -38.157073   1.000000   1.000000
    2      -38.134405    -38.134231   1.000000   1.000000
    3      -13.677344    -13.677373   1.000000   1.000000
    4      -10.231934    -10.231971   1.000000   1.000000
    5       -9.357260     -9.357299   1.000000   1.000000
    6       -9.021299     -9.021339   1.000000   1.000000
    7       -6.132168     -6.132200   1.000000   1.000000
    8       -2.527826     -2.527847   1.000000   1.000000
    9       -1.847346     -1.847371   1.000000   1.000000
   10       -1.056585     -1.056614   1.000000   1.000000
   11        0.903730      0.903710   1.000000   1.000000
   12        2.676374      2.676350   1.000000   1.000000
   13        2.747290      2.747268   1.000000   1.000000
   14        3.287603      3.287586   1.000000   1.000000
   15        3.706047      3.706018   1.000000   1.000000
   16        3.884160      3.884128   1.000000   1.000000
   17        4.216930      4.216915   1.000000   1.000000
   18        4.523557      4.523536   1.000000   1.000000
   19        9.920418      9.920448   0.000000   0.000000
   20       12.089018     12.089038   0.000000   0.000000
   21       12.786139     12.786126   0.000000   0.000000
   22       13.501647     13.501659   0.000000   0.000000
   23       13.724688     13.724680   0.000000   0.000000
   24       14.270794     14.270800   0.000000   0.000000
   25       15.419030     15.417311   0.000000   0.000000
   26       15.818622     15.797039   0.000000   0.000000
 
 -0.1111111E+00  0.1250000E+00  0.3917275E-16  0.2777778E-02
    1      -38.158909    -38.158734   1.000000   1.000000
    2      -38.132875    -38.132701   1.000000   1.000000
    3      -13.838833    -13.838866   1.000000   1.000000
    4       -9.717692     -9.717731   1.000000   1.000000
    5       -9.345514     -9.345554   1.000000   1.000000
    6       -8.981577     -8.981618   1.000000   1.000000
    7       -6.568733     -6.568765   1.000000   1.000000
    8       -2.378809     -2.378832   1.000000   1.000000
    9       -1.971041     -1.971065   1.000000   1.000000
   10       -1.246123     -1.246151   1.000000   1.000000
   11        1.056214      1.056191   1.000000   1.000000
   12        2.516997      2.516982   1.000000   1.000000
   13        2.674449      2.674429   1.000000   1.000000
   14        3.507686      3.507663   1.000000   1.000000
   15        3.737293      3.737266   1.000000   1.000000
   16        4.062383      4.062366   1.000000   1.000000
   17        4.169149      4.169117   1.000000   1.000000
   18        4.325912      4.325890   1.000000   1.000000
   19        9.366151      9.366189   0.000000   0.000000
   20       11.925001     11.925021   0.000000   0.000000
   21       13.304651     13.304655   0.000000   0.000000
   22       13.609822     13.609765   0.000000   0.000000
   23       14.024565     14.023771   0.000000   0.000000
   24       14.113177     14.112813   0.000000   0.000000
   25       15.747973     15.594469   0.000000   0.000000
   26       16.085450     16.034018   0.000000   0.000000
 
 -0.1563813E-16  0.2500000E+00  0.4873500E-16  0.2777778E-02
    1      -38.157203    -38.157028   1.000000   1.000000
    2      -38.134563    -38.134388   1.000000   1.000000
    3      -13.655419    -13.655448   1.000000   1.000000
    4      -10.281470    -10.281506   1.000000   1.000000
    5       -9.391089     -9.391129   1.000000   1.000000
    6       -9.117413     -9.117452   1.000000   1.000000
    7       -5.908332     -5.908364   1.000000   1.000000
    8       -2.180173     -2.180197   1.000000   1.000000
    9       -1.965450     -1.965475   1.000000   1.000000
   10       -1.211662     -1.211690   1.000000   1.000000
   11        1.120225      1.120203   1.000000   1.000000
   12        2.479064      2.479035   1.000000   1.000000
   13        2.621626      2.621604   1.000000   1.000000
   14        2.952157      2.952150   1.000000   1.000000
   15        3.698769      3.698740   1.000000   1.000000
   16        3.992175      3.992149   1.000000   1.000000
   17        4.179270      4.179256   1.000000   1.000000
   18        4.647965      4.647937   1.000000   1.000000
   19       10.197634     10.197659   0.000000   0.000000
   20       11.983291     11.983300   0.000000   0.000000
   21       12.474019     12.474041   0.000000   0.000000
   22       12.961089     12.961098   0.000000   0.000000
   23       13.809440     13.809433   0.000000   0.000000
   24       14.953898     14.954233   0.000000   0.000000
   25       15.328765     15.328345   0.000000   0.000000
   26       16.179963     16.188892   0.000000   0.000000
 
  0.1111111E+00  0.2500000E+00  0.9551243E-16  0.2777778E-02
    1      -38.155698    -38.155523   1.000000   1.000000
    2      -38.136006    -38.135832   1.000000   1.000000
    3      -13.502899    -13.502927   1.000000   1.000000
    4      -10.651692    -10.651727   1.000000   1.000000
    5       -9.416159     -9.416198   1.000000   1.000000
    6       -9.163969     -9.164007   1.000000   1.000000
    7       -5.553565     -5.553597   1.000000   1.000000
    8       -2.301193     -2.301219   1.000000   1.000000
    9       -1.698828     -1.698855   1.000000   1.000000
   10       -1.201856     -1.201884   1.000000   1.000000
   11        1.198599      1.198578   1.000000   1.000000
   12        2.189448      2.189425   1.000000   1.000000
   13        2.499916      2.499898   1.000000   1.000000
   14        3.019300      3.019285   1.000000   1.000000
   15        3.561529      3.561503   1.000000   1.000000
   16        4.002430      4.002399   1.000000   1.000000
   17        4.371560      4.371541   1.000000   1.000000
   18        4.695082      4.695055   1.000000   1.000000
   19       10.727241     10.727255   0.000000   0.000000
   20       11.693683     11.693710   0.000000   0.000000
   21       12.292136     12.292154   0.000000   0.000000
   22       13.013210     13.013218   0.000000   0.000000
   23       13.788699     13.788677   0.000000   0.000000
   24       14.725738     14.725721   0.000000   0.000000
   25       15.192436     15.198835   0.000000   0.000000
   26       16.083502     16.070624   0.000000   0.000000
 
  0.2222222E+00  0.2500000E+00  0.1523426E-15  0.2777778E-02
    1      -38.153136    -38.152960   1.000000   1.000000
    2      -38.138466    -38.138293   1.000000   1.000000
    3      -13.226710    -13.226739   1.000000   1.000000
    4      -11.159016    -11.159050   1.000000   1.000000
    5       -9.486577     -9.486615   1.000000   1.000000
    6       -9.210324     -9.210362   1.000000   1.000000
    7       -5.088705     -5.088737   1.000000   1.000000
    8       -2.517336     -2.517364   1.000000   1.000000
    9       -1.475513     -1.475539   1.000000   1.000000
   10       -1.070917     -1.070947   1.000000   1.000000
   11        1.307187      1.307168   1.000000   1.000000
   12        1.646885      1.646872   1.000000   1.000000
   13        2.406325      2.406306   1.000000   1.000000
   14        3.236289      3.236265   1.000000   1.000000
   15        3.519525      3.519499   1.000000   1.000000
   16        4.086983      4.086952   1.000000   1.000000
   17        4.547508      4.547482   1.000000   1.000000
   18        4.779664      4.779637   1.000000   1.000000
   19       11.353267     11.353279   0.000000   0.000000
   20       11.582182     11.582204   0.000000   0.000000
   21       11.980993     11.981007   0.000000   0.000000
   22       12.854736     12.854724   0.000000   0.000000
   23       14.076728     14.076714   0.000000   0.000000
   24       14.347249     14.347201   0.000000   0.000000
   25       15.182835     15.183775   0.000000   0.000000
   26       16.193895     16.220042   0.000000   0.000000
 
  0.3333333E+00  0.2500000E+00  0.7914760E-16  0.2777778E-02
    1      -38.150048    -38.149872   1.000000   1.000000
    2      -38.141430    -38.141257   1.000000   1.000000
    3      -12.870090    -12.870120   1.000000   1.000000
    4      -11.675248    -11.675281   1.000000   1.000000
    5       -9.517494     -9.517531   1.000000   1.000000
    6       -9.268808     -9.268845   1.000000   1.000000
    7       -4.701635     -4.701667   1.000000   1.000000
    8       -2.780826     -2.780859   1.000000   1.000000
    9       -1.306961     -1.306988   1.000000   1.000000
   10       -0.972237     -0.972266   1.000000   1.000000
   11        1.187114      1.187107   1.000000   1.000000
   12        1.620198      1.620178   1.000000   1.000000
   13        2.248756      2.248737   1.000000   1.000000
   14        3.231695      3.231666   1.000000   1.000000
   15        3.727946      3.727919   1.000000   1.000000
   16        4.137647      4.137617   1.000000   1.000000
   17        4.562276      4.562252   1.000000   1.000000
   18        4.950514      4.950482   1.000000   1.000000
   19       11.322932     11.322940   0.000000   0.000000
   20       11.823502     11.823526   0.000000   0.000000
   21       12.275731     12.275740   0.000000   0.000000
   22       12.542944     12.542944   0.000000   0.000000
   23       14.156346     14.156229   0.000000   0.000000
   24       14.618424     14.618519   0.000000   0.000000
   25       15.131126     15.130777   0.000000   0.000000
   26       16.057508     16.100736   0.000000   0.000000
 
  0.4444444E+00  0.2500000E+00  0.6256638E-16  0.2777778E-02
    1      -38.148539    -38.148362   1.000000   1.000000
    2      -38.142928    -38.142756   1.000000   1.000000
    3      -12.677775    -12.677805   1.000000   1.000000
    4      -11.905459    -11.905492   1.000000   1.000000
    5       -9.508413     -9.508450   1.000000   1.000000
    6       -9.295098     -9.295135   1.000000   1.000000
    7       -4.601789     -4.601820   1.000000   1.000000
    8       -3.015015     -3.015047   1.000000   1.000000
    9       -1.247327     -1.247354   1.000000   1.000000
   10       -0.841172     -0.841200   1.000000   1.000000
   11        1.062575      1.062565   1.000000   1.000000
   12        1.705997      1.705979   1.000000   1.000000
   13        2.306809      2.306790   1.000000   1.000000
   14        3.147762      3.147731   1.000000   1.000000
   15        3.895571      3.895543   1.000000   1.000000
   16        4.099240      4.099212   1.000000   1.000000
   17        4.583767      4.583744   1.000000   1.000000
   18        5.012874      5.012839   1.000000   1.000000
   19       11.203147     11.203153   0.000000   0.000000
   20       11.929375     11.929382   0.000000   0.000000
   21       12.308980     12.308993   0.000000   0.000000
   22       12.887616     12.887621   0.000000   0.000000
   23       14.356751     14.356757   0.000000   0.000000
   24       14.632955     14.630408   0.000000   0.000000
   25       14.981258     14.976004   0.000000   0.000000