   8   8   1   0
  0.8434960E+01  0.3180362E-09  0.3180362E-09  0.7703522E-09  0.5000000E-15
  1.000000000000000E-004
  CAR 
 unknown system                          
     16.06069948    -44.46013188  301      2.44351242      1.00000000
    -44.460  0.0000E+00  0.0000E+00  0.0000E+00  0.0000E+00
    -44.258  0.0000E+00  0.0000E+00  0.0000E+00  0.0000E+00
    -44.057  0.0000E+00  0.0000E+00  0.0000E+00  0.0000E+00
    -43.855  0.0000E+00  0.0000E+00  0.0000E+00  0.0000E+00
    -43.653  0.0000E+00  0.0000E+00  0.0000E+00  0.0000E+00
    -43.451  0.0000E+00  0.0000E+00  0.0000E+00  0.0000E+00
    -43.250  0.0000E+00  0.0000E+00  0.0000E+00  0.0000E+00
    -43.048  0.0000E+00  0.0000E+00  0.0000E+00  0.0000E+00
    -42.846  0.0000E+00  0.0000E+00  0.0000E+00  0.0000E+00
    -42.645  0.0000E+00  0.0000E+00  0.0000E+00  0.0000E+00
    -42.443  0.0000E+00  0.0000E+00  0.0000E+00  0.0000E+00
    -42.241  0.0000E+00  0.0000E+00  0.0000E+00  0.0000E+00
    -42.039  0.0000E+00  0.0000E+00  0.0000E+00  0.0000E+00
    -41.838  0.0000E+00  0.0000E+00  0.0000E+00  0.0000E+00
    -41.636  0.0000E+00  0.0000E+00  0.2020E-01  0.2020E-01
    -41.434  0.0000E+00  0.0000E+00  0.2020E-01  0.2020E-01
    -41.232  0.0000E+00  0.0000E+00  0.4040E-01  0.4040E-01
    -41.031  0.0000E+00  0.0000E+00  0.4040E-01  0.4040E-01
    -40.829  0.0000E+00  0.0000E+00  0.4040E-01  0.4040E-01
    -40.627  0.0000E+00  0.0000E+00  0.4040E-01  0.4040E-01
    -40.425  0.0000E+00  0.0000E+00  0.4040E-01  0.4040E-01
    -40.224  0.0000E+00  0.0000E+00  0.4040E-01  0.4040E-01
    -40.022  0.0000E+00  0.0000E+00  0.4040E-01  0.4040E-01
    -39.820  0.0000E+00  0.0000E+00  0.4040E-01  0.4040E-01
    -39.618  0.0000E+00  0.0000E+00  0.4040E-01  0.4040E-01
    -39.417  0.0000E+00  0.0000E+00  0.4040E-01  0.4040E-01
    -39.215  0.0000E+00  0.0000E+00  0.4040E-01  0.4040E-01
    -39.013  0.0000E+00  0.0000E+00  0.4040E-01  0.4040E-01
    -38.812  0.0000E+00  0.0000E+00  0.4040E-01  0.4040E-01
    -38.610  0.0000E+00  0.0000E+00  0.4040E-01  0.4040E-01
    -38.408  0.0000E+00  0.0000E+00  0.4040E-01  0.4040E-01
    -38.206  0.0000E+00  0.0000E+00  0.4040E-01  0.4040E-01
    -38.005  0.0000E+00  0.0000E+00  0.4040E-01  0.4040E-01
    -37.803  0.0000E+00  0.0000E+00  0.4040E-01  0.4040E-01
    -37.601  0.0000E+00  0.0000E+00  0.4040E-01  0.4040E-01
    -37.399  0.0000E+00  0.0000E+00  0.4040E-01  0.4040E-01
    -37.198  0.0000E+00  0.0000E+00  0.4040E-01  0.4040E-01
    -36.996  0.0000E+00  0.0000E+00  0.4040E-01  0.4040E-01
    -36.794  0.0000E+00  0.0000E+00  0.4040E-01  0.4040E-01
    -36.592  0.0000E+00  0.0000E+00  0.4040E-01  0.4040E-01
    -36.391  0.0000E+00  0.0000E+00  0.4040E-01  0.4040E-01
    -36.189  0.0000E+00  0.0000E+00  0.4040E-01  0.4040E-01
    -35.987  0.0000E+00  0.0000E+00  0.4040E-01  0.4040E-01
    -35.785  0.0000E+00  0.0000E+00  0.4040E-01  0.4040E-01
    -35.584  0.0000E+00  0.0000E+00  0.4040E-01  0.4040E-01
    -35.382  0.0000E+00  0.0000E+00  0.4040E-01  0.4040E-01
    -35.180  0.0000E+00  0.0000E+00  0.4040E-01  0.4040E-01
    -34.979  0.0000E+00  0.0000E+00  0.4040E-01  0.4040E-01
    -34.777  0.0000E+00  0.0000E+00  0.4040E-01  0.4040E-01
    -34.575  0.0000E+00  0.0000E+00  0.4040E-01  0.4040E-01
    -34.373  0.0000E+00  0.0000E+00  0.4040E-01  0.4040E-01
    -34.172  0.0000E+00  0.0000E+00  0.4040E-01  0.4040E-01
    -33.970  0.0000E+00  0.0000E+00  0.4040E-01  0.4040E-01
    -33.768  0.0000E+00  0.0000E+00  0.4040E-01  0.4040E-01
    -33.566  0.0000E+00  0.0000E+00  0.4040E-01  0.4040E-01
    -33.365  0.0000E+00  0.0000E+00  0.4040E-01  0.4040E-01
    -33.163  0.0000E+00  0.0000E+00  0.4040E-01  0.4040E-01
    -32.961  0.0000E+00  0.0000E+00  0.4040E-01  0.4040E-01
    -32.759  0.0000E+00  0.0000E+00  0.4040E-01  0.4040E-01
    -32.558  0.0000E+00  0.0000E+00  0.4040E-01  0.4040E-01
    -32.356  0.0000E+00  0.0000E+00  0.4040E-01  0.4040E-01
    -32.154  0.0000E+00  0.0000E+00  0.4040E-01  0.4040E-01
    -31.952  0.0000E+00  0.0000E+00  0.4040E-01  0.4040E-01
    -31.751  0.0000E+00  0.0000E+00  0.4040E-01  0.4040E-01
    -31.549  0.0000E+00  0.0000E+00  0.4040E-01  0.4040E-01
    -31.347  0.0000E+00  0.0000E+00  0.4040E-01  0.4040E-01
    -31.146  0.0000E+00  0.0000E+00  0.4040E-01  0.4040E-01
    -30.944  0.0000E+00  0.0000E+00  0.4040E-01  0.4040E-01
    -30.742  0.0000E+00  0.0000E+00  0.4040E-01  0.4040E-01
    -30.540  0.0000E+00  0.0000E+00  0.4040E-01  0.4040E-01
    -30.339  0.0000E+00  0.0000E+00  0.4040E-01  0.4040E-01
    -30.137  0.0000E+00  0.0000E+00  0.4040E-01  0.4040E-01
    -29.935  0.0000E+00  0.0000E+00  0.4040E-01  0.4040E-01
    -29.733  0.0000E+00  0.0000E+00  0.4040E-01  0.4040E-01
    -29.532  0.0000E+00  0.0000E+00  0.4040E-01  0.4040E-01
    -29.330  0.0000E+00  0.0000E+00  0.4040E-01  0.4040E-01
    -29.128  0.0000E+00  0.0000E+00  0.4040E-01  0.4040E-01
    -28.926  0.0000E+00  0.0000E+00  0.4040E-01  0.4040E-01
    -28.725  0.0000E+00  0.0000E+00  0.4040E-01  0.4040E-01
    -28.523  0.0000E+00  0.0000E+00  0.4040E-01  0.4040E-01
    -28.321  0.0000E+00  0.0000E+00  0.4040E-01  0.4040E-01
    -28.120  0.0000E+00  0.0000E+00  0.4040E-01  0.4040E-01
    -27.918  0.0000E+00  0.0000E+00  0.4040E-01  0.4040E-01
    -27.716  0.0000E+00  0.0000E+00  0.4040E-01  0.4040E-01
    -27.514  0.0000E+00  0.0000E+00  0.4040E-01  0.4040E-01
    -27.313  0.0000E+00  0.0000E+00  0.4040E-01  0.4040E-01
    -27.111  0.0000E+00  0.0000E+00  0.4040E-01  0.4040E-01
    -26.909  0.0000E+00  0.0000E+00  0.4040E-01  0.4040E-01
    -26.707  0.0000E+00  0.0000E+00  0.4040E-01  0.4040E-01
    -26.506  0.0000E+00  0.0000E+00  0.4040E-01  0.4040E-01
    -26.304  0.0000E+00  0.0000E+00  0.4040E-01  0.4040E-01
    -26.102  0.0000E+00  0.0000E+00  0.4040E-01  0.4040E-01
    -25.900  0.0000E+00  0.0000E+00  0.4040E-01  0.4040E-01
    -25.699  0.0000E+00  0.0000E+00  0.4040E-01  0.4040E-01
    -25.497  0.0000E+00  0.0000E+00  0.4040E-01  0.4040E-01
    -25.295  0.0000E+00  0.0000E+00  0.4040E-01  0.4040E-01
    -25.093  0.0000E+00  0.0000E+00  0.4040E-01  0.4040E-01
    -24.892  0.0000E+00  0.0000E+00  0.4040E-01  0.4040E-01
    -24.690  0.0000E+00  0.0000E+00  0.4040E-01  0.4040E-01
    -24.488  0.0000E+00  0.0000E+00  0.4040E-01  0.4040E-01
    -24.287  0.0000E+00  0.0000E+00  0.4040E-01  0.4040E-01
    -24.085  0.0000E+00  0.0000E+00  0.4040E-01  0.4040E-01
    -23.883  0.0000E+00  0.0000E+00  0.4040E-01  0.4040E-01
    -23.681  0.0000E+00  0.0000E+00  0.4040E-01  0.4040E-01
    -23.480  0.0000E+00  0.0000E+00  0.4040E-01  0.4040E-01
    -23.278  0.0000E+00  0.0000E+00  0.4040E-01  0.4040E-01
    -23.076  0.0000E+00  0.0000E+00  0.4040E-01  0.4040E-01
    -22.874  0.0000E+00  0.0000E+00  0.4040E-01  0.4040E-01
    -22.673  0.0000E+00  0.0000E+00  0.4040E-01  0.4040E-01
    -22.471  0.0000E+00  0.0000E+00  0.4040E-01  0.4040E-01
    -22.269  0.0000E+00  0.0000E+00  0.4040E-01  0.4040E-01
    -22.067  0.0000E+00  0.0000E+00  0.4040E-01  0.4040E-01
    -21.866  0.0000E+00  0.0000E+00  0.4040E-01  0.4040E-01
    -21.664  0.0000E+00  0.0000E+00  0.4040E-01  0.4040E-01
    -21.462  0.0000E+00  0.0000E+00  0.4040E-01  0.4040E-01
    -21.260  0.0000E+00  0.0000E+00  0.4040E-01  0.4040E-01
    -21.059  0.0000E+00  0.0000E+00  0.4040E-01  0.4040E-01
    -20.857  0.0000E+00  0.0000E+00  0.4040E-01  0.4040E-01
    -20.655  0.0000E+00  0.0000E+00  0.4040E-01  0.4040E-01
    -20.454  0.0000E+00  0.0000E+00  0.4040E-01  0.4040E-01
    -20.252  0.0000E+00  0.0000E+00  0.4040E-01  0.4040E-01
    -20.050  0.0000E+00  0.0000E+00  0.4040E-01  0.4040E-01
    -19.848  0.0000E+00  0.0000E+00  0.4040E-01  0.4040E-01
    -19.647  0.0000E+00  0.0000E+00  0.4040E-01  0.4040E-01
    -19.445  0.0000E+00  0.0000E+00  0.4040E-01  0.4040E-01
    -19.243  0.0000E+00  0.0000E+00  0.4040E-01  0.4040E-01
    -19.041  0.0000E+00  0.0000E+00  0.4040E-01  0.4040E-01
    -18.840  0.0000E+00  0.0000E+00  0.4040E-01  0.4040E-01
    -18.638  0.0000E+00  0.0000E+00  0.4040E-01  0.4040E-01
    -18.436  0.0000E+00  0.0000E+00  0.4040E-01  0.4040E-01
    -18.234  0.0000E+00  0.0000E+00  0.4040E-01  0.4040E-01
    -18.033  0.3220E-01  0.3220E-01  0.4208E-01  0.4208E-01
    -17.831  0.0000E+00  0.0000E+00  0.6061E-01  0.6061E-01
    -17.629  0.0000E+00  0.0000E+00  0.6061E-01  0.6061E-01
    -17.427  0.0000E+00  0.0000E+00  0.6061E-01  0.6061E-01
    -17.226  0.0000E+00  0.0000E+00  0.6061E-01  0.6061E-01
    -17.024  0.0000E+00  0.0000E+00  0.6061E-01  0.6061E-01
    -16.822  0.0000E+00  0.0000E+00  0.6061E-01  0.6061E-01
    -16.621  0.0000E+00  0.0000E+00  0.6061E-01  0.6061E-01
    -16.419  0.0000E+00  0.0000E+00  0.6061E-01  0.6061E-01
    -16.217  0.0000E+00  0.0000E+00  0.6061E-01  0.6061E-01
    -16.015  0.0000E+00  0.0000E+00  0.6061E-01  0.6061E-01
    -15.814  0.0000E+00  0.0000E+00  0.6061E-01  0.6061E-01
    -15.612  0.0000E+00  0.0000E+00  0.6061E-01  0.6061E-01
    -15.410  0.0000E+00  0.0000E+00  0.6061E-01  0.6061E-01
    -15.208  0.0000E+00  0.0000E+00  0.6061E-01  0.6061E-01
    -15.007  0.0000E+00  0.0000E+00  0.6061E-01  0.6061E-01
    -14.805  0.0000E+00  0.0000E+00  0.6061E-01  0.6061E-01
    -14.603  0.0000E+00  0.0000E+00  0.6061E-01  0.6061E-01
    -14.401  0.0000E+00  0.0000E+00  0.6061E-01  0.6061E-01
    -14.200  0.0000E+00  0.0000E+00  0.6061E-01  0.6061E-01
    -13.998  0.0000E+00  0.0000E+00  0.6061E-01  0.6061E-01
    -13.796  0.0000E+00  0.0000E+00  0.6061E-01  0.6061E-01
    -13.595  0.0000E+00  0.0000E+00  0.6061E-01  0.6061E-01
    -13.393  0.0000E+00  0.0000E+00  0.6061E-01  0.6061E-01
    -13.191  0.0000E+00  0.0000E+00  0.6061E-01  0.6061E-01
    -12.989  0.5953E-02  0.5953E-02  0.6110E-01  0.6110E-01
    -12.788  0.1295E-01  0.1295E-01  0.6293E-01  0.6293E-01
    -12.586  0.3449E-01  0.3449E-01  0.6703E-01  0.6703E-01
    -12.384  0.4513E-01  0.4513E-01  0.7517E-01  0.7517E-01
    -12.182  0.0000E+00  0.0000E+00  0.8081E-01  0.8081E-01
    -11.981  0.0000E+00  0.0000E+00  0.8081E-01  0.8081E-01
    -11.779  0.0000E+00  0.0000E+00  0.8081E-01  0.8081E-01
    -11.577  0.0000E+00  0.0000E+00  0.8081E-01  0.8081E-01
    -11.375  0.0000E+00  0.0000E+00  0.8081E-01  0.8081E-01
    -11.174  0.0000E+00  0.0000E+00  0.8081E-01  0.8081E-01
    -10.972  0.0000E+00  0.0000E+00  0.8081E-01  0.8081E-01
    -10.770  0.0000E+00  0.0000E+00  0.8081E-01  0.8081E-01
    -10.568  0.0000E+00  0.0000E+00  0.8081E-01  0.8081E-01
    -10.367  0.0000E+00  0.0000E+00  0.8081E-01  0.8081E-01
    -10.165  0.0000E+00  0.0000E+00  0.8081E-01  0.8081E-01
     -9.963  0.0000E+00  0.0000E+00  0.8081E-01  0.8081E-01
     -9.762  0.0000E+00  0.0000E+00  0.8081E-01  0.8081E-01
     -9.560  0.0000E+00  0.0000E+00  0.8081E-01  0.8081E-01
     -9.358  0.0000E+00  0.0000E+00  0.8081E-01  0.8081E-01
     -9.156  0.0000E+00  0.0000E+00  0.8081E-01  0.8081E-01
     -8.955  0.0000E+00  0.0000E+00  0.8081E-01  0.8081E-01
     -8.753  0.0000E+00  0.0000E+00  0.8081E-01  0.8081E-01
     -8.551  0.0000E+00  0.0000E+00  0.8081E-01  0.8081E-01
     -8.349  0.0000E+00  0.0000E+00  0.8081E-01  0.8081E-01
     -8.148  0.0000E+00  0.0000E+00  0.8081E-01  0.8081E-01
     -7.946  0.0000E+00  0.0000E+00  0.8081E-01  0.8081E-01
     -7.744  0.0000E+00  0.0000E+00  0.8081E-01  0.8081E-01
     -7.542  0.0000E+00  0.0000E+00  0.8081E-01  0.8081E-01
     -7.341  0.0000E+00  0.0000E+00  0.8081E-01  0.8081E-01
     -7.139  0.0000E+00  0.0000E+00  0.8081E-01  0.8081E-01
     -6.937  0.0000E+00  0.0000E+00  0.8081E-01  0.8081E-01
     -6.735  0.0000E+00  0.0000E+00  0.8081E-01  0.8081E-01
     -6.534  0.0000E+00  0.0000E+00  0.8081E-01  0.8081E-01
     -6.332  0.0000E+00  0.0000E+00  0.8081E-01  0.8081E-01
     -6.130  0.0000E+00  0.0000E+00  0.8081E-01  0.8081E-01
     -5.929  0.0000E+00  0.0000E+00  0.8081E-01  0.8081E-01
     -5.727  0.0000E+00  0.0000E+00  0.8081E-01  0.8081E-01
     -5.525  0.0000E+00  0.0000E+00  0.8081E-01  0.8081E-01
     -5.323  0.0000E+00  0.0000E+00  0.8081E-01  0.8081E-01
     -5.122  0.0000E+00  0.0000E+00  0.8081E-01  0.8081E-01
     -4.920  0.0000E+00  0.0000E+00  0.8081E-01  0.8081E-01
     -4.718  0.0000E+00  0.0000E+00  0.8081E-01  0.8081E-01
     -4.516  0.0000E+00  0.0000E+00  0.8081E-01  0.8081E-01
     -4.315  0.0000E+00  0.0000E+00  0.8081E-01  0.8081E-01
     -4.113  0.0000E+00  0.0000E+00  0.8081E-01  0.8081E-01
     -3.911  0.3987E-02  0.3987E-02  0.8101E-01  0.8101E-01
     -3.709  0.1296E-01  0.1296E-01  0.8274E-01  0.8273E-01
     -3.508  0.1453E-01  0.1453E-01  0.8591E-01  0.8591E-01
     -3.306  0.1311E-01  0.1311E-01  0.8868E-01  0.8868E-01
     -3.104  0.2745E-01  0.2745E-01  0.9156E-01  0.9156E-01
     -2.902  0.1335E-01  0.1335E-01  0.9645E-01  0.9645E-01
     -2.701  0.2414E-01  0.2414E-01  0.9921E-01  0.9921E-01
     -2.499  0.3626E-01  0.3626E-01  0.1059E+00  0.1059E+00
     -2.297  0.2014E-01  0.2014E-01  0.1117E+00  0.1117E+00
     -2.096  0.1037E-01  0.1037E-01  0.1144E+00  0.1144E+00
     -1.894  0.8873E-02  0.8872E-02  0.1162E+00  0.1162E+00
     -1.692  0.4238E-01  0.4237E-01  0.1198E+00  0.1198E+00
     -1.490  0.3199E-01  0.3199E-01  0.1269E+00  0.1269E+00
     -1.289  0.3036E-01  0.3036E-01  0.1332E+00  0.1332E+00
     -1.087  0.1838E-01  0.1838E-01  0.1379E+00  0.1379E+00
     -0.885  0.8713E-02  0.8713E-02  0.1410E+00  0.1410E+00
     -0.683  0.0000E+00  0.0000E+00  0.1414E+00  0.1414E+00
     -0.482  0.0000E+00  0.0000E+00  0.1414E+00  0.1414E+00
     -0.280  0.0000E+00  0.0000E+00  0.1414E+00  0.1414E+00
     -0.078  0.0000E+00  0.0000E+00  0.1414E+00  0.1414E+00
      0.124  0.0000E+00  0.0000E+00  0.1414E+00  0.1414E+00
      0.325  0.3520E-02  0.3520E-02  0.1415E+00  0.1415E+00
      0.527  0.2311E-01  0.2311E-01  0.1439E+00  0.1439E+00
      0.729  0.2967E-01  0.2967E-01  0.1499E+00  0.1499E+00
      0.930  0.1135E-01  0.1135E-01  0.1539E+00  0.1539E+00
      1.132  0.1210E-01  0.1210E-01  0.1563E+00  0.1563E+00
      1.334  0.1439E-01  0.1439E-01  0.1588E+00  0.1588E+00
      1.536  0.2314E-01  0.2314E-01  0.1625E+00  0.1625E+00
      1.737  0.2319E-01  0.2319E-01  0.1672E+00  0.1672E+00
      1.939  0.2518E-01  0.2518E-01  0.1720E+00  0.1720E+00
      2.141  0.2536E-01  0.2536E-01  0.1770E+00  0.1770E+00
      2.343  0.1258E-01  0.1258E-01  0.1812E+00  0.1812E+00
      2.544  0.0000E+00  0.0000E+00  0.1818E+00  0.1818E+00
      2.746  0.0000E+00  0.0000E+00  0.1818E+00  0.1818E+00
      2.948  0.0000E+00  0.0000E+00  0.1818E+00  0.1818E+00
      3.150  0.0000E+00  0.0000E+00  0.1818E+00  0.1818E+00
      3.351  0.0000E+00  0.0000E+00  0.1818E+00  0.1818E+00
      3.553  0.0000E+00  0.0000E+00  0.1818E+00  0.1818E+00
      3.755  0.0000E+00  0.0000E+00  0.1818E+00  0.1818E+00
      3.957  0.0000E+00  0.0000E+00  0.1818E+00  0.1818E+00
      4.158  0.0000E+00  0.0000E+00  0.1818E+00  0.1818E+00
      4.360  0.0000E+00  0.0000E+00  0.1818E+00  0.1818E+00
      4.562  0.6643E-03  0.6643E-03  0.1819E+00  0.1819E+00
      4.763  0.2692E-02  0.2692E-02  0.1822E+00  0.1822E+00
      4.965  0.4990E-02  0.4990E-02  0.1830E+00  0.1830E+00
      5.167  0.8190E-02  0.8189E-02  0.1843E+00  0.1843E+00
      5.369  0.1706E-01  0.1706E-01  0.1868E+00  0.1868E+00
      5.570  0.1858E-01  0.1858E-01  0.1902E+00  0.1902E+00
      5.772  0.1155E-01  0.1155E-01  0.1934E+00  0.1934E+00
      5.974  0.1190E-01  0.1190E-01  0.1957E+00  0.1957E+00
      6.176  0.1370E-01  0.1370E-01  0.1984E+00  0.1984E+00
      6.377  0.8832E-02  0.8832E-02  0.2007E+00  0.2007E+00
      6.579  0.3036E-02  0.3036E-02  0.2019E+00  0.2019E+00
      6.781  0.0000E+00  0.0000E+00  0.2020E+00  0.2020E+00
      6.983  0.0000E+00  0.0000E+00  0.2020E+00  0.2020E+00
      7.184  0.0000E+00  0.0000E+00  0.2020E+00  0.2020E+00
      7.386  0.0000E+00  0.0000E+00  0.2020E+00  0.2020E+00
      7.588  0.0000E+00  0.0000E+00  0.2020E+00  0.2020E+00
      7.790  0.0000E+00  0.0000E+00  0.2020E+00  0.2020E+00
      7.991  0.0000E+00  0.0000E+00  0.2020E+00  0.2020E+00
      8.193  0.0000E+00  0.0000E+00  0.2020E+00  0.2020E+00
      8.395  0.0000E+00  0.0000E+00  0.2020E+00  0.2020E+00
      8.596  0.1112E-03  0.1109E-03  0.2020E+00  0.2020E+00
      8.798  0.1057E-02  0.1057E-02  0.2022E+00  0.2022E+00
      9.000  0.1955E-02  0.1954E-02  0.2024E+00  0.2024E+00
      9.202  0.3597E-02  0.3597E-02  0.2031E+00  0.2031E+00
      9.403  0.4233E-02  0.4233E-02  0.2039E+00  0.2039E+00
      9.605  0.4491E-02  0.4491E-02  0.2048E+00  0.2048E+00
      9.807  0.5131E-02  0.5131E-02  0.2057E+00  0.2057E+00
     10.009  0.5770E-02  0.5770E-02  0.2068E+00  0.2068E+00
     10.210  0.7895E-02  0.7895E-02  0.2082E+00  0.2082E+00
     10.412  0.9589E-02  0.9589E-02  0.2100E+00  0.2100E+00
     10.614  0.9019E-02  0.9019E-02  0.2119E+00  0.2119E+00
     10.816  0.9184E-02  0.9184E-02  0.2137E+00  0.2137E+00
     11.017  0.1038E-01  0.1038E-01  0.2157E+00  0.2157E+00
     11.219  0.1149E-01  0.1149E-01  0.2179E+00  0.2179E+00
     11.421  0.9736E-02  0.9736E-02  0.2201E+00  0.2201E+00
     11.623  0.9527E-02  0.9527E-02  0.2220E+00  0.2220E+00
     11.824  0.9502E-02  0.9502E-02  0.2239E+00  0.2239E+00
     12.026  0.9527E-02  0.9526E-02  0.2258E+00  0.2258E+00
     12.228  0.1051E-01  0.1051E-01  0.2278E+00  0.2278E+00
     12.429  0.1285E-01  0.1284E-01  0.2302E+00  0.2302E+00
     12.631  0.2419E-01  0.2419E-01  0.2336E+00  0.2336E+00
     12.833  0.2222E-01  0.2224E-01  0.2396E+00  0.2395E+00
     13.035  0.5668E-02  0.5666E-02  0.2417E+00  0.2417E+00
     13.236  0.1326E-02  0.1329E-02  0.2424E+00  0.2424E+00
     13.438  0.0000E+00  0.0000E+00  0.2424E+00  0.2424E+00
     13.640  0.0000E+00  0.0000E+00  0.2424E+00  0.2424E+00
     13.842  0.0000E+00  0.0000E+00  0.2424E+00  0.2424E+00
     14.043  0.0000E+00  0.0000E+00  0.2424E+00  0.2424E+00
     14.245  0.0000E+00  0.0000E+00  0.2424E+00  0.2424E+00
     14.447  0.0000E+00  0.0000E+00  0.2424E+00  0.2424E+00
     14.649  0.0000E+00  0.0000E+00  0.2424E+00  0.2424E+00
     14.850  0.0000E+00  0.0000E+00  0.2424E+00  0.2424E+00
     15.052  0.0000E+00  0.0000E+00  0.2424E+00  0.2424E+00
     15.254  0.0000E+00  0.0000E+00  0.2424E+00  0.2424E+00
     15.455  0.0000E+00  0.0000E+00  0.2424E+00  0.2424E+00
     15.657  0.0000E+00  0.0000E+00  0.2424E+00  0.2424E+00
     15.859  0.0000E+00  0.0000E+00  0.2424E+00  0.2424E+00
     16.061  0.0000E+00  0.0000E+00  0.2424E+00  0.2424E+00
     16.06069948    -44.46013188  301      2.44351242      1.00000000
    -44.460  0.0000E+00  0.0000E+00  0.0000E+00  0.0000E+00  0.0000E+00  0.0000E+00  0.0000E+00  0.0000E+00  0.0000E+00  0.0000E+00  0.0000E+00  0.0000E+00  0.0000E+00  0.0000E+00  0.0000E+00  0.0000E+00  0.0000E+00  0.0000E+00
    -44.258  0.0000E+00  0.0000E+00  0.0000E+00  0.0000E+00  0.0000E+00  0.0000E+00  0.0000E+00  0.0000E+00  0.0000E+00  0.0000E+00  0.0000E+00  0.0000E+00  0.0000E+00  0.0000E+00  0.0000E+00  0.0000E+00  0.0000E+00  0.0000E+00
    -44.057  0.0000E+00  0.0000E+00  0.0000E+00  0.0000E+00  0.0000E+00  0.0000E+00  0.0000E+00  0.0000E+00  0.0000E+00  0.0000E+00  0.0000E+00  0.0000E+00  0.0000E+00  0.0000E+00  0.0000E+00  0.0000E+00  0.0000E+00  0.0000E+00
    -43.855  0.0000E+00  0.0000E+00  0.0000E+00  0.0000E+00  0.0000E+00  0.0000E+00  0.0000E+00  0.0000E+00  0.0000E+00  0.0000E+00  0.0000E+00  0.0000E+00  0.0000E+00  0.0000E+00  0.0000E+00  0.0000E+00  0.0000E+00  0.0000E+00
    -43.653  0.0000E+00  0.0000E+00  0.0000E+00  0.0000E+00  0.0000E+00  0.0000E+00  0.0000E+00  0.0000E+00  0.0000E+00  0.0000E+00  0.0000E+00  0.0000E+00  0.0000E+00  0.0000E+00  0.0000E+00  0.0000E+00  0.0000E+00  0.0000E+00
    -43.451  0.0000E+00  0.0000E+00  0.0000E+00  0.0000E+00  0.0000E+00  0.0000E+00  0.0000E+00  0.0000E+00  0.0000E+00  0.0000E+00  0.0000E+00  0.0000E+00  0.0000E+00  0.0000E+00  0.0000E+00  0.0000E+00  0.0000E+00  0.0000E+00
    -43.250  0.0000E+00  0.0000E+00  0.0000E+00  0.0000E+00  0.0000E+00  0.0000E+00  0.0000E+00  0.0000E+00  0.0000E+00  0.0000E+00  0.0000E+00  0.0000E+00  0.0000E+00  0.0000E+00  0.0000E+00  0.0000E+00  0.0000E+00  0.0000E+00
    -43.048  0.0000E+00  0.0000E+00  0.0000E+00  0.0000E+00  0.0000E+00  0.0000E+00  0.0000E+00  0.0000E+00  0.0000E+00  0.0000E+00  0.0000E+00  0.0000E+00  0.0000E+00  0.0000E+00  0.0000E+00  0.0000E+00  0.0000E+00  0.0000E+00
    -42.846  0.0000E+00  0.0000E+00  0.0000E+00  0.0000E+00  0.0000E+00  0.0000E+00  0.0000E+00  0.0000E+00  0.0000E+00  0.0000E+00  0.0000E+00  0.0000E+00  0.0000E+00  0.0000E+00  0.0000E+00  0.0000E+00  0.0000E+00  0.0000E+00
    -42.645  0.0000E+00  0.0000E+00  0.0000E+00  0.0000E+00  0.0000E+00  0.0000E+00  0.0000E+00  0.0000E+00  0.0000E+00  0.0000E+00  0.0000E+00  0.0000E+00  0.0000E+00  0.0000E+00  0.0000E+00  0.0000E+00  0.0000E+00  0.0000E+00
    -42.443  0.0000E+00  0.0000E+00  0.0000E+00  0.0000E+00  0.0000E+00  0.0000E+00  0.0000E+00  0.0000E+00  0.0000E+00  0.0000E+00  0.0000E+00  0.0000E+00  0.0000E+00  0.0000E+00  0.0000E+00  0.0000E+00  0.0000E+00  0.0000E+00
    -42.241  0.0000E+00  0.0000E+00  0.0000E+00  0.0000E+00  0.0000E+00  0.0000E+00  0.0000E+00  0.0000E+00  0.0000E+00  0.0000E+00  0.0000E+00  0.0000E+00  0.0000E+00  0.0000E+00  0.0000E+00  0.0000E+00  0.0000E+00  0.0000E+00
    -42.039  0.0000E+00  0.0000E+00  0.0000E+00  0.0000E+00  0.0000E+00  0.0000E+00  0.0000E+00  0.0000E+00  0.0000E+00  0.0000E+00  0.0000E+00  0.0000E+00  0.0000E+00  0.0000E+00  0.0000E+00  0.0000E+00  0.0000E+00  0.0000E+00
    -41.838  0.0000E+00  0.0000E+00  0.0000E+00  0.0000E+00  0.0000E+00  0.0000E+00  0.0000E+00  0.0000E+00  0.0000E+00  0.0000E+00  0.0000E+00  0.0000E+00  0.0000E+00  0.0000E+00  0.0000E+00  0.0000E+00  0.0000E+00  0.0000E+00
    -41.636  0.0000E+00  0.0000E+00  0.0000E+00  0.0000E+00  0.0000E+00  0.0000E+00  0.0000E+00  0.0000E+00  0.0000E+00  0.0000E+00  0.0000E+00  0.0000E+00  0.0000E+00  0.0000E+00  0.0000E+00  0.0000E+00  0.0000E+00  0.0000E+00
    -41.434  0.0000E+00  0.0000E+00  0.0000E+00  0.0000E+00  0.0000E+00  0.0000E+00  0.0000E+00  0.0000E+00  0.0000E+00  0.0000E+00  0.0000E+00  0.0000E+00  0.0000E+00  0.0000E+00  0.0000E+00  0.0000E+00  0.0000E+00  0.0000E+00
    -41.232  0.0000E+00  0.0000E+00  0.0000E+00  0.0000E+00  0.0000E+00  0.0000E+00  0.0000E+00  0.0000E+00  0.0000E+00  0.0000E+00  0.0000E+00  0.0000E+00  0.0000E+00  0.0000E+00  0.0000E+00  0.0000E+00  0.0000E+00  0.0000E+00
    -41.031  0.0000E+00  0.0000E+00  0.0000E+00  0.0000E+00  0.0000E+00  0.0000E+00  0.0000E+00  0.0000E+00  0.0000E+00  0.0000E+00  0.0000E+00  0.0000E+00  0.0000E+00  0.0000E+00  0.0000E+00  0.0000E+00  0.0000E+00  0.0000E+00
    -40.829  0.0000E+00  0.0000E+00  0.0000E+00  0.0000E+00  0.0000E+00  0.0000E+00  0.0000E+00  0.0000E+00  0.0000E+00  0.0000E+00  0.0000E+00  0.0000E+00  0.0000E+00  0.0000E+00  0.0000E+00  0.0000E+00  0.0000E+00  0.0000E+00
    -40.627  0.0000E+00  0.0000E+00  0.0000E+00  0.0000E+00  0.0000E+00  0.0000E+00  0.0000E+00  0.0000E+00  0.0000E+00  0.0000E+00  0.0000E+00  0.0000E+00  0.0000E+00  0.0000E+00  0.0000E+00  0.0000E+00  0.0000E+00  0.0000E+00
    -40.425  0.0000E+00  0.0000E+00  0.0000E+00  0.0000E+00  0.0000E+00  0.0000E+00  0.0000E+00  0.0000E+00  0.0000E+00  0.0000E+00  0.0000E+00  0.0000E+00  0.0000E+00  0.0000E+00  0.0000E+00  0.0000E+00  0.0000E+00  0.0000E+00
    -40.224  0.0000E+00  0.0000E+00  0.0000E+00  0.0000E+00  0.0000E+00  0.0000E+00  0.0000E+00  0.0000E+00  0.0000E+00  0.0000E+00  0.0000E+00  0.0000E+00  0.0000E+00  0.0000E+00  0.0000E+00  0.0000E+00  0.0000E+00  0.0000E+00
    -40.022  0.0000E+00  0.0000E+00  0.0000E+00  0.0000E+00  0.0000E+00  0.0000E+00  0.0000E+00  0.0000E+00  0.0000E+00  0.0000E+00  0.0000E+00  0.0000E+00  0.0000E+00  0.0000E+00  0.0000E+00  0.0000E+00  0.0000E+00  0.0000E+00
    -39.820  0.0000E+00  0.0000E+00  0.0000E+00  0.0000E+00  0.0000E+00  0.0000E+00  0.0000E+00  0.0000E+00  0.0000E+00  0.0000E+00  0.0000E+00  0.0000E+00  0.0000E+00  0.0000E+00  0.0000E+00  0.0000E+00  0.0000E+00  0.0000E+00
    -39.618  0.0000E+00  0.0000E+00  0.0000E+00  0.0000E+00  0.0000E+00  0.0000E+00  0.0000E+00  0.0000E+00  0.0000E+00  0.0000E+00  0.0000E+00  0.0000E+00  0.0000E+00  0.0000E+00  0.0000E+00  0.0000E+00  0.0000E+00  0.0000E+00
    -39.417  0.0000E+00  0.0000E+00  0.0000E+00  0.0000E+00  0.0000E+00  0.0000E+00  0.0000E+00  0.0000E+00  0.0000E+00  0.0000E+00  0.0000E+00  0.0000E+00  0.0000E+00  0.0000E+00  0.0000E+00  0.0000E+00  0.0000E+00  0.0000E+00
    -39.215  0.0000E+00  0.0000E+00  0.0000E+00  0.0000E+00  0.0000E+00  0.0000E+00  0.0000E+00  0.0000E+00  0.0000E+00  0.0000E+00  0.0000E+00  0.0000E+00  0.0000E+00  0.0000E+00  0.0000E+00  0.0000E+00  0.0000E+00  0.0000E+00
    -39.013  0.0000E+00  0.0000E+00  0.0000E+00  0.0000E+00  0.0000E+00  0.0000E+00  0.0000E+00  0.0000E+00  0.0000E+00  0.0000E+00  0.0000E+00  0.0000E+00  0.0000E+00  0.0000E+00  0.0000E+00  0.0000E+00  0.0000E+00  0.0000E+00
    -38.812  0.0000E+00  0.0000E+00  0.0000E+00  0.0000E+00  0.0000E+00  0.0000E+00  0.0000E+00  0.0000E+00  0.0000E+00  0.0000E+00  0.0000E+00  0.0000E+00  0.0000E+00  0.0000E+00  0.0000E+00  0.0000E+00  0.0000E+00  0.0000E+00
    -38.610  0.0000E+00  0.0000E+00  0.0000E+00  0.0000E+00  0.0000E+00  0.0000E+00  0.0000E+00  0.0000E+00  0.0000E+00  0.0000E+00  0.0000E+00  0.0000E+00  0.0000E+00  0.0000E+00  0.0000E+00  0.0000E+00  0.0000E+00  0.0000E+00
    -38.408  0.0000E+00  0.0000E+00  0.0000E+00  0.0000E+00  0.0000E+00  0.0000E+00  0.0000E+00  0.0000E+00  0.0000E+00  0.0000E+00  0.0000E+00  0.0000E+00  0.0000E+00  0.0000E+00  0.0000E+00  0.0000E+00  0.0000E+00  0.0000E+00
    -38.206  0.0000E+00  0.0000E+00  0.0000E+00  0.0000E+00  0.0000E+00  0.0000E+00  0.0000E+00  0.0000E+00  0.0000E+00  0.0000E+00  0.0000E+00  0.0000E+00  0.0000E+00  0.0000E+00  0.0000E+00  0.0000E+00  0.0000E+00  0.0000E+00
    -38.005  0.0000E+00  0.0000E+00  0.0000E+00  0.0000E+00  0.0000E+00  0.0000E+00  0.0000E+00  0.0000E+00  0.0000E+00  0.0000E+00  0.0000E+00  0.0000E+00  0.0000E+00  0.0000E+00  0.0000E+00  0.0000E+00  0.0000E+00  0.0000E+00
    -37.803  0.0000E+00  0.0000E+00  0.0000E+00  0.0000E+00  0.0000E+00  0.0000E+00  0.0000E+00  0.0000E+00  0.0000E+00  0.0000E+00  0.0000E+00  0.0000E+00  0.0000E+00  0.0000E+00  0.0000E+00  0.0000E+00  0.0000E+00  0.0000E+00
    -37.601  0.0000E+00  0.0000E+00  0.0000E+00  0.0000E+00  0.0000E+00  0.0000E+00  0.0000E+00  0.0000E+00  0.0000E+00  0.0000E+00  0.0000E+00  0.0000E+00  0.0000E+00  0.0000E+00  0.0000E+00  0.0000E+00  0.0000E+00  0.0000E+00
    -37.399  0.0000E+00  0.0000E+00  0.0000E+00  0.0000E+00  0.0000E+00  0.0000E+00  0.0000E+00  0.0000E+00  0.0000E+00  0.0000E+00  0.0000E+00  0.0000E+00  0.0000E+00  0.0000E+00  0.0000E+00  0.0000E+00  0.0000E+00  0.0000E+00
    -37.198  0.0000E+00  0.0000E+00  0.0000E+00  0.0000E+00  0.0000E+00  0.0000E+00  0.0000E+00  0.0000E+00  0.0000E+00  0.0000E+00  0.0000E+00  0.0000E+00  0.0000E+00  0.0000E+00  0.0000E+00  0.0000E+00  0.0000E+00  0.0000E+00
    -36.996  0.0000E+00  0.0000E+00  0.0000E+00  0.0000E+00  0.0000E+00  0.0000E+00  0.0000E+00  0.0000E+00  0.0000E+00  0.0000E+00  0.0000E+00  0.0000E+00  0.0000E+00  0.0000E+00  0.0000E+00  0.0000E+00  0.0000E+00  0.0000E+00
    -36.794  0.0000E+00  0.0000E+00  0.0000E+00  0.0000E+00  0.0000E+00  0.0000E+00  0.0000E+00  0.0000E+00  0.0000E+00  0.0000E+00  0.0000E+00  0.0000E+00  0.0000E+00  0.0000E+00  0.0000E+00  0.0000E+00  0.0000E+00  0.0000E+00
    -36.592  0.0000E+00  0.0000E+00  0.0000E+00  0.0000E+00  0.0000E+00  0.0000E+00  0.0000E+00  0.0000E+00  0.0000E+00  0.0000E+00  0.0000E+00  0.0000E+00  0.0000E+00  0.0000E+00  0.0000E+00  0.0000E+00  0.0000E+00  0.0000E+00
    -36.391  0.0000E+00  0.0000E+00  0.0000E+00  0.0000E+00  0.0000E+00  0.0000E+00  0.0000E+00  0.0000E+00  0.0000E+00  0.0000E+00  0.0000E+00  0.0000E+00  0.0000E+00  0.0000E+00  0.0000E+00  0.0000E+00  0.0000E+00  0.0000E+00
    -36.189  0.0000E+00  0.0000E+00  0.0000E+00  0.0000E+00  0.0000E+00  0.0000E+00  0.0000E+00  0.0000E+00  0.0000E+00  0.0000E+00  0.0000E+00  0.0000E+00  0.0000E+00  0.0000E+00  0.0000E+00  0.0000E+00  0.0000E+00  0.0000E+00
    -35.987  0.0000E+00  0.0000E+00  0.0000E+00  0.0000E+00  0.0000E+00  0.0000E+00  0.0000E+00  0.0000E+00  0.0000E+00  0.0000E+00  0.0000E+00  0.0000E+00  0.0000E+00  0.0000E+00  0.0000E+00  0.0000E+00  0.0000E+00  0.0000E+00
    -35.785  0.0000E+00  0.0000E+00  0.0000E+00  0.0000E+00  0.0000E+00  0.0000E+00  0.0000E+00  0.0000E+00  0.0000E+00  0.0000E+00  0.0000E+00  0.0000E+00  0.0000E+00  0.0000E+00  0.0000E+00  0.0000E+00  0.0000E+00  0.0000E+00
    -35.584  0.0000E+00  0.0000E+00  0.0000E+00  0.0000E+00  0.0000E+00  0.0000E+00  0.0000E+00  0.0000E+00  0.0000E+00  0.0000E+00  0.0000E+00  0.0000E+00  0.0000E+00  0.0000E+00  0.0000E+00  0.0000E+00  0.0000E+00  0.0000E+00
    -35.382  0.0000E+00  0.0000E+00  0.0000E+00  0.0000E+00  0.0000E+00  0.0000E+00  0.0000E+00  0.0000E+00  0.0000E+00  0.0000E+00  0.0000E+00  0.0000E+00  0.0000E+00  0.0000E+00  0.0000E+00  0.0000E+00  0.0000E+00  0.0000E+00
    -35.180  0.0000E+00  0.0000E+00  0.0000E+00  0.0000E+00  0.0000E+00  0.0000E+00  0.0000E+00  0.0000E+00  0.0000E+00  0.0000E+00  0.0000E+00  0.0000E+00  0.0000E+00  0.0000E+00  0.0000E+00  0.0000E+00  0.0000E+00  0.0000E+00
    -34.979  0.0000E+00  0.0000E+00  0.0000E+00  0.0000E+00  0.0000E+00  0.0000E+00  0.0000E+00  0.0000E+00  0.0000E+00  0.0000E+00  0.0000E+00  0.0000E+00  0.0000E+00  0.0000E+00  0.0000E+00  0.0000E+00  0.0000E+00  0.0000E+00
    -34.777  0.0000E+00  0.0000E+00  0.0000E+00  0.0000E+00  0.0000E+00  0.0000E+00  0.0000E+00  0.0000E+00  0.0000E+00  0.0000E+00  0.0000E+00  0.0000E+00  0.0000E+00  0.0000E+00  0.0000E+00  0.0000E+00  0.0000E+00  0.0000E+00
    -34.575  0.0000E+00  0.0000E+00  0.0000E+00  0.0000E+00  0.0000E+00  0.0000E+00  0.0000E+00  0.0000E+00  0.0000E+00  0.0000E+00  0.0000E+00  0.0000E+00  0.0000E+00  0.0000E+00  0.0000E+00  0.0000E+00  0.0000E+00  0.0000E+00
    -34.373  0.0000E+00  0.0000E+00  0.0000E+00  0.0000E+00  0.0000E+00  0.0000E+00  0.0000E+00  0.0000E+00  0.0000E+00  0.0000E+00  0.0000E+00  0.0000E+00  0.0000E+00  0.0000E+00  0.0000E+00  0.0000E+00  0.0000E+00  0.0000E+00