    8    8   99    2
  0.8434960E+01  0.3180362E-09  0.3180362E-09  0.7703522E-09  0.5000000E-15
  1.000000000000000E-004
  CAR 
 unknown system                          
     36     57     24
 
  0.0000000E+00  0.0000000E+00  0.0000000E+00  0.1736111E-02
    1      -41.709171    -41.709185   1.000000   1.000000
    2      -41.702811    -41.702824   1.000000   1.000000
    3      -41.292579    -41.292595   1.000000   1.000000
    4      -41.287115    -41.287131   1.000000   1.000000
    5      -18.131885    -18.131876   1.000000   1.000000
    6      -17.943761    -17.943752   1.000000   1.000000
    7      -13.145616    -13.145613   1.000000   1.000000
    8      -12.421324    -12.421322   1.000000   1.000000
    9       -4.023380     -4.023377   1.000000   1.000000
   10       -2.239085     -2.239083   1.000000   1.000000
   11       -0.953419     -0.953418   1.000000   1.000000
   12       -0.953403     -0.953404   1.000000   1.000000
   13       -0.791978     -0.791978   1.000000   1.000000
   14       -0.791969     -0.791970   1.000000   1.000000
   15        2.157029      2.157029   1.000000   1.000000
   16        2.157037      2.157038   1.000000   1.000000
   17        2.404423      2.404424   1.000000   1.000000
   18        2.404426      2.404426   1.000000   1.000000
   19        4.445010      4.445015   0.000000   0.000000
   20        6.675546      6.675547   0.000000   0.000000
   21        8.532364      8.532438   0.000000   0.000000
   22        8.935724      8.935805   0.000000   0.000000
   23       11.121615     11.121619   0.000000   0.000000
   24       11.204986     11.204979   0.000000   0.000000
 
  0.8333333E-01  0.0000000E+00  0.0000000E+00  0.1041667E-01
    1      -41.708017    -41.708031   1.000000   1.000000
    2      -41.702057    -41.702071   1.000000   1.000000
    3      -41.291286    -41.291302   1.000000   1.000000
    4      -41.286191    -41.286207   1.000000   1.000000
    5      -18.120863    -18.120854   1.000000   1.000000
    6      -17.936466    -17.936457   1.000000   1.000000
    7      -13.116538    -13.116535   1.000000   1.000000
    8      -12.405652    -12.405649   1.000000   1.000000
    9       -4.006947     -4.006944   1.000000   1.000000
   10       -2.248818     -2.248817   1.000000   1.000000
   11       -1.117883     -1.117880   1.000000   1.000000
   12       -1.017639     -1.017639   1.000000   1.000000
   13       -0.901365     -0.901363   1.000000   1.000000
   14       -0.816911     -0.816911   1.000000   1.000000
   15        1.967226      1.967227   1.000000   1.000000
   16        2.092188      2.092188   1.000000   1.000000
   17        2.267338      2.267338   1.000000   1.000000
   18        2.412173      2.412174   1.000000   1.000000
   19        4.509348      4.509352   0.000000   0.000000
   20        6.667799      6.667800   0.000000   0.000000
   21        8.704600      8.704667   0.000000   0.000000
   22        9.086118      9.086192   0.000000   0.000000
   23       11.249459     11.249462   0.000000   0.000000
   24       11.434136     11.434129   0.000000   0.000000
 
  0.1666667E+00  0.0000000E+00  0.0000000E+00  0.1041667E-01
    1      -41.704936    -41.704949   1.000000   1.000000
    2      -41.699986    -41.699999   1.000000   1.000000
    3      -41.287826    -41.287841   1.000000   1.000000
    4      -41.283645    -41.283661   1.000000   1.000000
    5      -18.089679    -18.089671   1.000000   1.000000
    6      -17.916922    -17.916915   1.000000   1.000000
    7      -13.033826    -13.033823   1.000000   1.000000
    8      -12.364828    -12.364825   1.000000   1.000000
    9       -3.959429     -3.959426   1.000000   1.000000
   10       -2.284916     -2.284914   1.000000   1.000000
   11       -1.517910     -1.517902   1.000000   1.000000
   12       -1.206477     -1.206469   1.000000   1.000000
   13       -1.175148     -1.175148   1.000000   1.000000
   14       -0.897275     -0.897275   1.000000   1.000000
   15        1.522382      1.522382   1.000000   1.000000
   16        1.886925      1.886927   1.000000   1.000000
   17        1.944449      1.944450   1.000000   1.000000
   18        2.406164      2.406164   1.000000   1.000000
   19        4.665916      4.665919   0.000000   0.000000
   20        6.633648      6.633649   0.000000   0.000000
   21        9.151364      9.151412   0.000000   0.000000
   22        9.489548      9.489606   0.000000   0.000000
   23       11.579832     11.579834   0.000000   0.000000
   24       12.048389     12.048381   0.000000   0.000000
 
  0.2500000E+00 -0.1387779E-16  0.0000000E+00  0.1041667E-01
    1      -41.700773    -41.700786   1.000000   1.000000
    2      -41.697239    -41.697253   1.000000   1.000000
    3      -41.283144    -41.283159   1.000000   1.000000
    4      -41.280191    -41.280207   1.000000   1.000000
    5      -18.044422    -18.044416   1.000000   1.000000
    6      -17.891433    -17.891427   1.000000   1.000000
    7      -12.910973    -12.910970   1.000000   1.000000
    8      -12.315439    -12.315437   1.000000   1.000000
    9       -3.887338     -3.887335   1.000000   1.000000
   10       -2.389652     -2.389648   1.000000   1.000000
   11       -1.961630     -1.961618   1.000000   1.000000
   12       -1.606891     -1.606878   1.000000   1.000000
   13       -1.368113     -1.368113   1.000000   1.000000
   14       -1.016663     -1.016664   1.000000   1.000000
   15        1.012951      1.012952   1.000000   1.000000
   16        1.383308      1.383309   1.000000   1.000000
   17        1.772617      1.772618   1.000000   1.000000
   18        2.373030      2.373030   1.000000   1.000000
   19        4.862022      4.862024   0.000000   0.000000
   20        6.558258      6.558259   0.000000   0.000000
   21        9.671159      9.671189   0.000000   0.000000
   22       10.053015     10.053054   0.000000   0.000000
   23       11.988187     11.988186   0.000000   0.000000
   24       12.884506     12.892574   0.000000   0.000000
 
  0.3333333E+00  0.0000000E+00  0.0000000E+00  0.1041667E-01
    1      -41.696674    -41.696687   1.000000   1.000000
    2      -41.694409    -41.694422   1.000000   1.000000
    3      -41.278413    -41.278429   1.000000   1.000000
    4      -41.276716    -41.276731   1.000000   1.000000
    5      -17.994953    -17.994948   1.000000   1.000000
    6      -17.868190    -17.868185   1.000000   1.000000
    7      -12.771164    -12.771161   1.000000   1.000000
    8      -12.278197    -12.278194   1.000000   1.000000
    9       -3.803368     -3.803364   1.000000   1.000000
   10       -2.672455     -2.672443   1.000000   1.000000
   11       -2.205054     -2.205045   1.000000   1.000000
   12       -1.976130     -1.976115   1.000000   1.000000
   13       -1.545514     -1.545514   1.000000   1.000000
   14       -1.138428     -1.138429   1.000000   1.000000
   15        0.582524      0.582526   1.000000   1.000000
   16        0.890992      0.890994   1.000000   1.000000
   17        1.618350      1.618351   1.000000   1.000000
   18        2.327845      2.327845   1.000000   1.000000
   19        5.065963      5.065965   0.000000   0.000000
   20        6.444343      6.444344   0.000000   0.000000
   21       10.022964     10.022982   0.000000   0.000000
   22       10.661156     10.661179   0.000000   0.000000
   23       12.347202     12.347199   0.000000   0.000000
   24       12.818876     12.818883   0.000000   0.000000
 
  0.4166667E+00  0.0000000E+00  0.0000000E+00  0.1041667E-01
    1      -41.693683    -41.693697   1.000000   1.000000
    2      -41.692405    -41.692418   1.000000   1.000000
    3      -41.275061    -41.275077   1.000000   1.000000
    4      -41.274124    -41.274140   1.000000   1.000000
    5      -17.954457    -17.954453   1.000000   1.000000
    6      -17.854372    -17.854369   1.000000   1.000000
    7      -12.650604    -12.650601   1.000000   1.000000
    8      -12.266235    -12.266232   1.000000   1.000000
    9       -3.727310     -3.727305   1.000000   1.000000
   10       -2.973258     -2.973243   1.000000   1.000000
   11       -2.311850     -2.311838   1.000000   1.000000
   12       -2.205004     -2.204992   1.000000   1.000000
   13       -1.668096     -1.668096   1.000000   1.000000
   14       -1.227237     -1.227238   1.000000   1.000000
   15        0.323372      0.323374   1.000000   1.000000
   16        0.516466      0.516467   1.000000   1.000000
   17        1.512732      1.512732   1.000000   1.000000
   18        2.290731      2.290731   1.000000   1.000000
   19        5.240125      5.240126   0.000000   0.000000
   20        6.323503      6.323504   0.000000   0.000000
   21       10.157339     10.157352   0.000000   0.000000
   22       11.107535     11.107553   0.000000   0.000000
   23       12.576374     12.576369   0.000000   0.000000
   24       12.846144     12.846155   0.000000   0.000000
 
  0.5000000E+00 -0.2775558E-16  0.0000000E+00  0.5208333E-02
    1      -41.692568    -41.692582   1.000000   1.000000
    2      -41.691682    -41.691695   1.000000   1.000000
    3      -41.273855    -41.273871   1.000000   1.000000
    4      -41.273143    -41.273159   1.000000   1.000000
    5      -17.938093    -17.938089   1.000000   1.000000
    6      -17.850654    -17.850651   1.000000   1.000000
    7      -12.599204    -12.599201   1.000000   1.000000
    8      -12.268087    -12.268084   1.000000   1.000000
    9       -3.692143     -3.692137   1.000000   1.000000
   10       -3.094595     -3.094579   1.000000   1.000000
   11       -2.367998     -2.367982   1.000000   1.000000
   12       -2.261688     -2.261680   1.000000   1.000000
   13       -1.711661     -1.711662   1.000000   1.000000
   14       -1.259546     -1.259547   1.000000   1.000000
   15        0.256788      0.256791   1.000000   1.000000
   16        0.358329      0.358329   1.000000   1.000000
   17        1.475308      1.475309   1.000000   1.000000
   18        2.276574      2.276575   1.000000   1.000000
   19        5.315310      5.315311   0.000000   0.000000
   20        6.265899      6.265901   0.000000   0.000000
   21       10.181099     10.181111   0.000000   0.000000
   22       11.259488     11.259504   0.000000   0.000000
   23       12.652707     12.652701   0.000000   0.000000
   24       12.896049     12.896059   0.000000   0.000000
 
  0.8333333E-01  0.8333333E-01  0.0000000E+00  0.1041667E-01
    1      -41.705910    -41.705923   1.000000   1.000000
    2      -41.700647    -41.700661   1.000000   1.000000
    3      -41.288928    -41.288943   1.000000   1.000000
    4      -41.284445    -41.284460   1.000000   1.000000
    5      -18.099657    -18.099649   1.000000   1.000000
    6      -17.923037    -17.923030   1.000000   1.000000
    7      -13.060674    -13.060671   1.000000   1.000000
    8      -12.377495    -12.377492   1.000000   1.000000
    9       -3.974742     -3.974739   1.000000   1.000000
   10       -2.271431     -2.271429   1.000000   1.000000
   11       -1.369664     -1.369657   1.000000   1.000000
   12       -1.235665     -1.235663   1.000000   1.000000
   13       -0.989926     -0.989923   1.000000   1.000000
   14       -0.911745     -0.911746   1.000000   1.000000
   15        1.678663      1.678664   1.000000   1.000000
   16        1.877899      1.877900   1.000000   1.000000
   17        2.130304      2.130305   1.000000   1.000000
   18        2.371157      2.371157   1.000000   1.000000
   19        4.620050      4.620054   0.000000   0.000000
   20        6.646520      6.646521   0.000000   0.000000
   21        9.019356      9.019410   0.000000   0.000000
   22        9.363596      9.363659   0.000000   0.000000
   23       11.480721     11.480723   0.000000   0.000000
   24       11.854611     11.854603   0.000000   0.000000
 
  0.1666667E+00  0.8333333E-01  0.0000000E+00  0.2083333E-01
    1      -41.702318    -41.702332   1.000000   1.000000
    2      -41.698242    -41.698255   1.000000   1.000000
    3      -41.284871    -41.284886   1.000000   1.000000
    4      -41.281469    -41.281485   1.000000   1.000000
    5      -18.061302    -18.061295   1.000000   1.000000
    6      -17.900672    -17.900665   1.000000   1.000000
    7      -12.957343    -12.957340   1.000000   1.000000
    8      -12.332721    -12.332718   1.000000   1.000000
    9       -3.913044     -3.913041   1.000000   1.000000
   10       -2.335452     -2.335449   1.000000   1.000000
   11       -1.778623     -1.778612   1.000000   1.000000
   12       -1.567884     -1.567877   1.000000   1.000000
   13       -1.189408     -1.189404   1.000000   1.000000
   14       -1.027630     -1.027629   1.000000   1.000000
   15        1.225071      1.225072   1.000000   1.000000
   16        1.520781      1.520783   1.000000   1.000000
   17        1.897533      1.897533   1.000000   1.000000
   18        2.317290      2.317290   1.000000   1.000000
   19        4.798532      4.798535   0.000000   0.000000
   20        6.590030      6.590031   0.000000   0.000000
   21        9.540986      9.541020   0.000000   0.000000
   22        9.848823      9.848869   0.000000   0.000000
   23       11.858255     11.858255   0.000000   0.000000
   24       12.575615     12.575608   0.000000   0.000000
 
  0.2500000E+00  0.8333333E-01  0.0000000E+00  0.2083333E-01
    1      -41.698183    -41.698196   1.000000   1.000000
    2      -41.695453    -41.695466   1.000000   1.000000
    3      -41.280144    -41.280160   1.000000   1.000000
    4      -41.278004    -41.278020   1.000000   1.000000
    5      -18.013304    -18.013298   1.000000   1.000000
    6      -17.876574    -17.876569   1.000000   1.000000
    7      -12.824110    -12.824107   1.000000   1.000000
    8      -12.290780    -12.290778   1.000000   1.000000
    9       -3.829473     -3.829469   1.000000   1.000000
   10       -2.522446     -2.522438   1.000000   1.000000
   11       -2.128783     -2.128773   1.000000   1.000000
   12       -1.914788     -1.914777   1.000000   1.000000
   13       -1.422079     -1.422075   1.000000   1.000000
   14       -1.142582     -1.142580   1.000000   1.000000
   15        0.772438      0.772439   1.000000   1.000000
   16        1.092391      1.092393   1.000000   1.000000
   17        1.666599      1.666599   1.000000   1.000000
   18        2.258162      2.258163   1.000000   1.000000
   19        5.004811      5.004813   0.000000   0.000000
   20        6.491186      6.491187   0.000000   0.000000
   21       10.036167     10.036186   0.000000   0.000000
   22       10.464854     10.464882   0.000000   0.000000
   23       12.256136     12.256135   0.000000   0.000000
   24       12.827718     12.827705   0.000000   0.000000
 
  0.3333333E+00  0.8333333E-01  0.0000000E+00  0.2083333E-01
    1      -41.694649    -41.694663   1.000000   1.000000
    2      -41.693040    -41.693053   1.000000   1.000000
    3      -41.276100    -41.276115   1.000000   1.000000
    4      -41.274970    -41.274985   1.000000   1.000000
    5      -17.966905    -17.966901   1.000000   1.000000
    6      -17.858981    -17.858977   1.000000   1.000000
    7      -12.689294    -12.689291   1.000000   1.000000
    8      -12.270130    -12.270127   1.000000   1.000000
    9       -3.738756     -3.738751   1.000000   1.000000
   10       -2.840454     -2.840440   1.000000   1.000000
   11       -2.282771     -2.282764   1.000000   1.000000
   12       -2.196218     -2.196206   1.000000   1.000000
   13       -1.600014     -1.600010   1.000000   1.000000
   14       -1.242058     -1.242055   1.000000   1.000000
   15        0.443049      0.443050   1.000000   1.000000
   16        0.692906      0.692908   1.000000   1.000000
   17        1.499990      1.499991   1.000000   1.000000
   18        2.201215      2.201216   1.000000   1.000000
   19        5.206220      5.206221   0.000000   0.000000
   20        6.363941      6.363942   0.000000   0.000000
   21       10.304556     10.304569   0.000000   0.000000
   22       11.064251     11.064267   0.000000   0.000000
   23       12.567407     12.567402   0.000000   0.000000
   24       12.781457     12.781466   0.000000   0.000000
 
  0.4166667E+00  0.8333333E-01  0.0000000E+00  0.2083333E-01
    1      -41.692607    -41.692621   1.000000   1.000000
    2      -41.691625    -41.691638   1.000000   1.000000
    3      -41.273816    -41.273831   1.000000   1.000000
    4      -41.273133    -41.273149   1.000000   1.000000
    5      -17.936574    -17.936571   1.000000   1.000000
    6      -17.851639    -17.851636   1.000000   1.000000
    7      -12.595766    -12.595764   1.000000   1.000000
    8      -12.272170    -12.272167   1.000000   1.000000
    9       -3.668202     -3.668196   1.000000   1.000000
   10       -3.063733     -3.063718   1.000000   1.000000
   11       -2.375595     -2.375581   1.000000   1.000000
   12       -2.323274     -2.323268   1.000000   1.000000
   13       -1.693264     -1.693260   1.000000   1.000000
   14       -1.298998     -1.298995   1.000000   1.000000
   15        0.296735      0.296738   1.000000   1.000000
   16        0.432277      0.432277   1.000000   1.000000
   17        1.412768      1.412769   1.000000   1.000000
   18        2.166383      2.166383   1.000000   1.000000
   19        5.347988      5.347989   0.000000   0.000000
   20        6.259166      6.259168   0.000000   0.000000
   21       10.383357     10.383367   0.000000   0.000000
   22       11.411662     11.411676   0.000000   0.000000
   23       12.732941     12.732935   0.000000   0.000000
   24       12.855538     12.855547   0.000000   0.000000
 
  0.1666667E+00  0.1666667E+00  0.0000000E+00  0.1041667E-01
    1      -41.698779    -41.698793   1.000000   1.000000
    2      -41.695791    -41.695804   1.000000   1.000000
    3      -41.280746    -41.280762   1.000000   1.000000
    4      -41.278504    -41.278520   1.000000   1.000000
    5      -18.019705    -18.019699   1.000000   1.000000
    6      -17.879837    -17.879831   1.000000   1.000000
    7      -12.842280    -12.842277   1.000000   1.000000
    8      -12.296424    -12.296422   1.000000   1.000000
    9       -3.835522     -3.835518   1.000000   1.000000
   10       -2.462927     -2.462921   1.000000   1.000000
   11       -2.048049     -2.048038   1.000000   1.000000
   12       -1.971120     -1.971114   1.000000   1.000000
   13       -1.262518     -1.262517   1.000000   1.000000
   14       -1.247884     -1.247875   1.000000   1.000000
   15        0.883315      0.883315   1.000000   1.000000
   16        1.151895      1.151898   1.000000   1.000000
   17        1.721205      1.721205   1.000000   1.000000
   18        2.153755      2.153756   1.000000   1.000000
   19        4.992353      4.992355   0.000000   0.000000
   20        6.506786      6.506787   0.000000   0.000000
   21       10.128266     10.128284   0.000000   0.000000
   22       10.379763     10.379795   0.000000   0.000000
   23       12.239978     12.239976   0.000000   0.000000
   24       12.823775     12.823775   0.000000   0.000000
 
  0.2500000E+00  0.1666667E+00  0.0000000E+00  0.2083333E-01
    1      -41.695204    -41.695217   1.000000   1.000000
    2      -41.693410    -41.693424   1.000000   1.000000
    3      -41.276661    -41.276677   1.000000   1.000000
    4      -41.275485    -41.275501   1.000000   1.000000
    5      -17.973123    -17.973118   1.000000   1.000000
    6      -17.862256    -17.862252   1.000000   1.000000
    7      -12.709014    -12.709011   1.000000   1.000000
    8      -12.275296    -12.275293   1.000000   1.000000
    9       -3.731630     -3.731626   1.000000   1.000000
   10       -2.710750     -2.710740   1.000000   1.000000
   11       -2.300795     -2.300790   1.000000   1.000000
   12       -2.240290     -2.240282   1.000000   1.000000
   13       -1.487282     -1.487274   1.000000   1.000000
   14       -1.332588     -1.332578   1.000000   1.000000
   15        0.584570      0.584571   1.000000   1.000000
   16        0.835597      0.835600   1.000000   1.000000
   17        1.473186      1.473187   1.000000   1.000000
   18        2.011587      2.011588   1.000000   1.000000
   19        5.211145      5.211146   0.000000   0.000000
   20        6.383346      6.383347   0.000000   0.000000
   21       10.662221     10.662229   0.000000   0.000000
   22       11.044314     11.044331   0.000000   0.000000
   23       12.620633     12.620630   0.000000   0.000000
   24       12.696769     12.696778   0.000000   0.000000
 
  0.3333333E+00  0.1666667E+00  0.0000000E+00  0.2083333E-01
    1      -41.692650    -41.692663   1.000000   1.000000
    2      -41.691659    -41.691672   1.000000   1.000000
    3      -41.273765    -41.273781   1.000000   1.000000
    4      -41.273227    -41.273242   1.000000   1.000000
    5      -17.933497    -17.933494   1.000000   1.000000
    6      -17.854029    -17.854026   1.000000   1.000000
    7      -12.588663    -12.588661   1.000000   1.000000
    8      -12.280408    -12.280406   1.000000   1.000000
    9       -3.618556     -3.618551   1.000000   1.000000
   10       -2.976988     -2.976976   1.000000   1.000000
   11       -2.474492     -2.474489   1.000000   1.000000
   12       -2.390910     -2.390904   1.000000   1.000000
   13       -1.637359     -1.637347   1.000000   1.000000
   14       -1.395080     -1.395068   1.000000   1.000000
   15        0.407989      0.407991   1.000000   1.000000
   16        0.589564      0.589565   1.000000   1.000000
   17        1.282364      1.282365   1.000000   1.000000
   18        1.914489      1.914490   1.000000   1.000000
   19        5.411744      5.411745   0.000000   0.000000
   20        6.243806      6.243807   0.000000   0.000000
   21       10.906294     10.906300   0.000000   0.000000
   22       11.694937     11.694946   0.000000   0.000000
   23       12.733151     12.733152   0.000000   0.000000
   24       12.907575     12.907572   0.000000   0.000000
 
  0.4166667E+00  0.1666667E+00  0.0000000E+00  0.1041667E-01
    1      -41.691748    -41.691761   1.000000   1.000000
    2      -41.690978    -41.690991   1.000000   1.000000
    3      -41.272756    -41.272772   1.000000   1.000000
    4      -41.272330    -41.272345   1.000000   1.000000
    5      -17.916499    -17.916496   1.000000   1.000000
    6      -17.853320    -17.853317   1.000000   1.000000
    7      -12.533717    -12.533715   1.000000   1.000000
    8      -12.292633    -12.292631   1.000000   1.000000
    9       -3.555326     -3.555320   1.000000   1.000000
   10       -3.099685     -3.099672   1.000000   1.000000
   11       -2.521894     -2.521892   1.000000   1.000000
   12       -2.459471     -2.459464   1.000000   1.000000
   13       -1.686716     -1.686703   1.000000   1.000000
   14       -1.418063     -1.418051   1.000000   1.000000
   15        0.365076      0.365078   1.000000   1.000000
   16        0.480528      0.480529   1.000000   1.000000
   17        1.214205      1.214207   1.000000   1.000000
   18        1.879358      1.879359   1.000000   1.000000
   19        5.506477      5.506478   0.000000   0.000000
   20        6.169785      6.169786   0.000000   0.000000
   21       10.958130     10.958136   0.000000   0.000000
   22       11.961611     11.961622   0.000000   0.000000
   23       12.809482     12.809493   0.000000   0.000000
   24       13.018952     13.018985   0.000000   0.000000
 
  0.2500000E+00  0.2500000E+00  0.0000000E+00  0.1041667E-01
    1      -41.692652    -41.692665   1.000000   1.000000
    2      -41.691636    -41.691650   1.000000   1.000000
    3      -41.273742    -41.273758   1.000000   1.000000
    4      -41.273203    -41.273218   1.000000   1.000000
    5      -17.931672    -17.931668   1.000000   1.000000
    6      -17.855259    -17.855256   1.000000   1.000000
    7      -12.585016    -12.585014   1.000000   1.000000
    8      -12.284526    -12.284523   1.000000   1.000000
    9       -3.592821     -3.592816   1.000000   1.000000
   10       -2.902401     -2.902392   1.000000   1.000000
   11       -2.582379     -2.582376   1.000000   1.000000
   12       -2.398684     -2.398681   1.000000   1.000000
   13       -1.579175     -1.579163   1.000000   1.000000
   14       -1.472593     -1.472575   1.000000   1.000000
   15        0.491173      0.491174   1.000000   1.000000
   16        0.666397      0.666399   1.000000   1.000000
   17        1.225803      1.225804   1.000000   1.000000
   18        1.756000      1.756001   1.000000   1.000000
   19        5.443153      5.443155   0.000000   0.000000
   20        6.235182      6.235184   0.000000   0.000000
   21       11.379957     11.379956   0.000000   0.000000
   22       11.664474     11.664486   0.000000   0.000000
   23       12.664601     12.664608   0.000000   0.000000
   24       13.005087     13.005048   0.000000   0.000000
 
  0.3333333E+00  0.2500000E+00  0.0000000E+00  0.2083333E-01
    1      -41.691193    -41.691206   1.000000   1.000000
    2      -41.690632    -41.690645   1.000000   1.000000
    3      -41.272072    -41.272088   1.000000   1.000000
    4      -41.271881    -41.271896   1.000000   1.000000
    5      -17.900341    -17.900339   1.000000   1.000000
    6      -17.858155    -17.858152   1.000000   1.000000
    7      -12.483431    -12.483428   1.000000   1.000000
    8      -12.319263    -12.319260   1.000000   1.000000
    9       -3.439985     -3.439980   1.000000   1.000000
   10       -3.082273     -3.082264   1.000000   1.000000
   11       -2.721524     -2.721522   1.000000   1.000000
   12       -2.522397     -2.522395   1.000000   1.000000
   13       -1.647849     -1.647830   1.000000   1.000000
   14       -1.528650     -1.528631   1.000000   1.000000
   15        0.483381      0.483382   1.000000   1.000000
   16        0.589245      0.589246   1.000000   1.000000
   17        1.028363      1.028365   1.000000   1.000000
   18        1.599210      1.599211   1.000000   1.000000
   19        5.644986      5.644987   0.000000   0.000000
   20        6.079337      6.079339   0.000000   0.000000
   21       11.681578     11.681579   0.000000   0.000000
   22       12.359086     12.359092   0.000000   0.000000
   23       12.727122     12.727134   0.000000   0.000000
   24       13.309265     13.309753   0.000000   0.000000
 
  0.3333333E+00  0.3333333E+00  0.0000000E+00  0.3472222E-02
    1      -41.690636    -41.690650   1.000000   1.000000
    2      -41.690216    -41.690229   1.000000   1.000000
    3      -41.271395    -41.271411   1.000000   1.000000
    4      -41.271358    -41.271374   1.000000   1.000000
    5      -17.873761    -17.873758   1.000000   1.000000
    6      -17.873746    -17.873744   1.000000   1.000000
    7      -12.389111    -12.389108   1.000000   1.000000
    8      -12.389092    -12.389089   1.000000   1.000000
    9       -3.233409     -3.233402   1.000000   1.000000
   10       -3.233384     -3.233379   1.000000   1.000000
   11       -2.830512     -2.830510   1.000000   1.000000
   12       -2.584958     -2.584958   1.000000   1.000000
   13       -1.613595     -1.613573   1.000000   1.000000
   14       -1.613577     -1.613555   1.000000   1.000000
   15        0.594841      0.594841   1.000000   1.000000
   16        0.594863      0.594864   1.000000   1.000000
   17        0.879429      0.879432   1.000000   1.000000
   18        1.446817      1.446818   1.000000   1.000000
   19        5.874875      5.874876   0.000000   0.000000
   20        5.874906      5.874907   0.000000   0.000000
   21       12.125574     12.125573   0.000000   0.000000
   22       12.769846     12.769852   0.000000   0.000000
   23       12.908483     12.908496   0.000000   0.000000
   24       12.908497     12.908511   0.000000   0.000000
 
  0.0000000E+00  0.0000000E+00  0.2500000E+00  0.3472222E-02
    1      -41.708185    -41.708198   1.000000   1.000000
    2      -41.703716    -41.703729   1.000000   1.000000
    3      -41.291695    -41.291710   1.000000   1.000000
    4      -41.287890    -41.287906   1.000000   1.000000
    5      -18.106101    -18.106092   1.000000   1.000000
    6      -17.973147    -17.973138   1.000000   1.000000
    7      -13.044662    -13.044659   1.000000   1.000000
    8      -12.533723    -12.533720   1.000000   1.000000
    9       -3.787572     -3.787569   1.000000   1.000000
   10       -2.538702     -2.538700   1.000000   1.000000
   11       -0.931118     -0.931117   1.000000   1.000000
   12       -0.931103     -0.931103   1.000000   1.000000
   13       -0.817089     -0.817089   1.000000   1.000000
   14       -0.817079     -0.817080   1.000000   1.000000
   15        2.194481      2.194481   1.000000   1.000000
   16        2.194488      2.194488   1.000000   1.000000
   17        2.369284      2.369285   1.000000   1.000000
   18        2.369285      2.369285   1.000000   1.000000
   19        4.795516      4.795522   0.000000   0.000000
   20        6.341033      6.341037   0.000000   0.000000
   21        8.665845      8.665918   0.000000   0.000000
   22        9.046109      9.046186   0.000000   0.000000
   23       10.903707     10.903703   0.000000   0.000000
   24       10.980810     10.980813   0.000000   0.000000
 
  0.8333333E-01  0.0000000E+00  0.2500000E+00  0.2083333E-01
    1      -41.707109    -41.707122   1.000000   1.000000
    2      -41.702901    -41.702914   1.000000   1.000000
    3      -41.290500    -41.290516   1.000000   1.000000
    4      -41.286878    -41.286893   1.000000   1.000000
    5      -18.095517    -18.095508   1.000000   1.000000
    6      -17.965285    -17.965277   1.000000   1.000000
    7      -13.017454    -13.017451   1.000000   1.000000
    8      -12.515830    -12.515828   1.000000   1.000000
    9       -3.774608     -3.774605   1.000000   1.000000
   10       -2.543381     -2.543379   1.000000   1.000000
   11       -1.091218     -1.091215   1.000000   1.000000