 running on   24 total cores
 distrk:  each k-point on   24 cores,    1 groups
 distr:  one band on    6 cores,    4 groups
 using from now: INCAR     
 vasp.5.4.4.18Apr17-6-g9f103f2a35 (build Aug 12 2020 11:57:02) complex          
  
 POSCAR found type information on POSCAR  Li O 
 POSCAR found :  2 types and       8 ions
 scaLAPACK will be used

 ----------------------------------------------------------------------------- 
|                                                                             |
|  ADVICE TO THIS USER RUNNING 'VASP/VAMP'   (HEAR YOUR MASTER'S VOICE ...):  |
|                                                                             |
|      You have a (more or less) 'small supercell' and for smaller cells      |
|      it is recommended  to use the reciprocal-space projection scheme!      |
|      The real space optimization is not  efficient for small cells and it   |
|      is also less accurate ...                                              |
|      Therefore set LREAL=.FALSE. in the  INCAR file                         |
|                                                                             |
 ----------------------------------------------------------------------------- 

 LDA part: xc-table for Pade appr. of Perdew
 generate k-points for:   12   12    4
 POSCAR, INCAR and KPOINTS ok, starting setup
 FFT: planning ...
 WAVECAR not read
 entering main loop
       N       E                     dE             d eps       ncg     rms          rms(c)
DAV:   1     0.266460961828E+03    0.26646E+03   -0.18204E+04  5472   0.162E+03
DAV:   2    -0.163553110245E+02   -0.28282E+03   -0.27600E+03  6640   0.394E+02
DAV:   3    -0.393183965900E+02   -0.22963E+02   -0.22828E+02  9104   0.966E+01
DAV:   4    -0.411326329005E+02   -0.18142E+01   -0.18112E+01  8000   0.249E+01
DAV:   5    -0.412010905443E+02   -0.68458E-01   -0.68457E-01  7928   0.382E+00    0.114E+01
RMM:   6    -0.391420623987E+02    0.20590E+01   -0.58957E+00  5473   0.118E+01    0.511E+00
RMM:   7    -0.389213417958E+02    0.22072E+00   -0.73874E-01  6258   0.428E+00    0.232E+00
RMM:   8    -0.389192241315E+02    0.21177E-02   -0.18960E-01  6616   0.300E+00    0.276E-01
RMM:   9    -0.389266020302E+02   -0.73779E-02   -0.93728E-02  7166   0.129E+00    0.301E-01
RMM:  10    -0.389269643999E+02   -0.36237E-03   -0.27605E-02  6995   0.684E-01    0.135E-01
RMM:  11    -0.389280122602E+02   -0.10479E-02   -0.11411E-02  7447   0.317E-01    0.143E-01
RMM:  12    -0.389279812007E+02    0.31059E-04   -0.28945E-03  7718   0.198E-01    0.241E-01
RMM:  13    -0.389282945015E+02   -0.31330E-03   -0.25113E-03  6216   0.330E-01    0.844E-02
RMM:  14    -0.389283721681E+02   -0.77667E-04   -0.35906E-04  6709   0.101E-01    0.329E-02
RMM:  15    -0.389283945576E+02   -0.22390E-04   -0.18285E-04  5511   0.589E-02    0.590E-03
RMM:  16    -0.389283997521E+02   -0.51945E-05   -0.43220E-05  4270   0.346E-02
   1 F= -.38928400E+02 E0= -.38928400E+02  d E =-.389284E+02  mag=     0.0000
 curvature:   0.00 expect dE= 0.000E+00 dE for cont linesearch  0.000E+00
 trial: gam= 0.00000 g(F)=  0.161E-04 g(S)=  0.554E-02 ort = 0.000E+00 (trialstep = 0.100E+01)
 search vector abs. value=  0.556E-02
 bond charge predicted
       N       E                     dE             d eps       ncg     rms          rms(c)
DAV:   1    -0.389522396870E+02   -0.23845E-01   -0.41784E-01  6544   0.491E+00    0.104E+00
RMM:   2    -0.389336459468E+02    0.18594E-01   -0.82158E-02  5595   0.167E+00    0.272E-01
RMM:   3    -0.389323500058E+02    0.12959E-02   -0.71270E-03  6755   0.466E-01    0.137E-01
RMM:   4    -0.389321616319E+02    0.18837E-03   -0.12285E-03  6408   0.246E-01    0.581E-02
RMM:   5    -0.389320968243E+02    0.64808E-04   -0.57181E-04  6191   0.130E-01    0.132E-02
WARNING in EDDRMM: call to ZHEGV failed, returncode =   6  3      2
RMM:   6    -0.389321096302E+02   -0.12806E-04   -0.12340E-04  5211   0.481E-02    0.971E-03
RMM:   7    -0.389321097838E+02   -0.15361E-06   -0.12936E-05  3997   0.317E-02
   2 F= -.38932110E+02 E0= -.38932110E+02  d E =-.371003E-02  mag=    -0.0000
 trial-energy change:   -0.003710  1 .order   -0.003568   -0.005556   -0.001580
 step:   1.3102(harm=  1.3975)  dis= 0.00058  next Energy=   -38.932359 (dE=-0.396E-02)
 bond charge predicted
       N       E                     dE             d eps       ncg     rms          rms(c)
DAV:   1    -0.389344332375E+02   -0.23236E-02   -0.40855E-02  5840   0.153E+00    0.323E-01
RMM:   2    -0.389326896467E+02    0.17436E-02   -0.82959E-03  5690   0.524E-01    0.867E-02
RMM:   3    -0.389325307569E+02    0.15889E-03   -0.76388E-04  6813   0.152E-01    0.441E-02
RMM:   4    -0.389325071694E+02    0.23587E-04   -0.14685E-04  5955   0.830E-02    0.202E-02
RMM:   5    -0.389325017743E+02    0.53951E-05   -0.72194E-05  5546   0.461E-02
   3 F= -.38932502E+02 E0= -.38932502E+02  d E =-.410202E-02  mag=     0.0000
 curvature:  -0.67 expect dE=-0.859E-03 dE for cont linesearch -0.371E-04
 trial: gam= 0.13232 g(F)=  0.912E-03 g(S)=  0.380E-03 ort = 0.557E-03 (trialstep = 0.106E+01)
 search vector abs. value=  0.154E-02
 bond charge predicted
       N       E                     dE             d eps       ncg     rms          rms(c)
DAV:   1    -0.389342026721E+02   -0.16955E-02   -0.32295E-01  5504   0.405E+00    0.344E-01
RMM:   2    -0.389328812424E+02    0.13214E-02   -0.12431E-02  5832   0.689E-01    0.129E-01
RMM:   3    -0.389326046972E+02    0.27655E-03   -0.11307E-03  6644   0.193E-01    0.599E-02
RMM:   4    -0.389325794787E+02    0.25219E-04   -0.14694E-04  5906   0.783E-02    0.150E-02
RMM:   5    -0.389325774489E+02    0.20297E-05   -0.53002E-05  4833   0.376E-02
   4 F= -.38932577E+02 E0= -.38932577E+02  d E =-.756747E-04  mag=    -0.0000
 trial-energy change:   -0.000076  1 .order   -0.000079   -0.001450    0.001292
 step:   0.5616(harm=  0.5616)  dis= 0.00183  next Energy=   -38.932885 (dE=-0.383E-03)
 bond charge predicted
       N       E                     dE             d eps       ncg     rms          rms(c)
DAV:   1    -0.389332868881E+02   -0.70741E-03   -0.71894E-02  5504   0.190E+00    0.164E-01
RMM:   2    -0.389329809394E+02    0.30595E-03   -0.28622E-03  5643   0.323E-01    0.607E-02
RMM:   3    -0.389328985862E+02    0.82353E-04   -0.25212E-04  5624   0.892E-02    0.270E-02
RMM:   4    -0.389328943165E+02    0.42697E-05   -0.24909E-05  3683   0.362E-02
   5 F= -.38932894E+02 E0= -.38932894E+02  d E =-.392542E-03  mag=    -0.0000
 curvature:  -0.32 expect dE=-0.225E-04 dE for cont linesearch -0.109E-05
 trial: gam= 0.16171 g(F)=  0.254E-04 g(S)=  0.459E-04 ort =-0.729E-04 (trialstep = 0.962E+00)
 search vector abs. value=  0.879E-04
 reached required accuracy - stopping structural energy minimisation
