PROCAR lm decomposed
# of k-points:   57         # of bands:   24         # of ions:    8

 k-point     1 :    0.00000000 0.00000000 0.00000000     weight = 0.00173611

band     1 # energy  -41.70917141 # occ.  1.00000000
 
ion      s     py     pz     px    dxy    dyz    dz2    dxz  x2-y2    tot
    1  0.487  0.000  0.000  0.000  0.000  0.000  0.000  0.000  0.000  0.487
    2  0.487  0.000  0.000  0.000  0.000  0.000  0.000  0.000  0.000  0.487
    3  0.007  0.000  0.000  0.000  0.000  0.000  0.000  0.000  0.000  0.007
    4  0.007  0.000  0.000  0.000  0.000  0.000  0.000  0.000  0.000  0.007
    5  0.000  0.000  0.000  0.000  0.000  0.000  0.000  0.000  0.000  0.000
    6  0.000  0.000  0.000  0.000  0.000  0.000  0.000  0.000  0.000  0.000
    7  0.000  0.000  0.000  0.000  0.000  0.000  0.000  0.000  0.000  0.000
    8  0.000  0.000  0.000  0.000  0.000  0.000  0.000  0.000  0.000  0.000
tot    0.988  0.000  0.000  0.000  0.000  0.000  0.000  0.000  0.000  0.988
 
band     2 # energy  -41.70281071 # occ.  1.00000000
 
ion      s     py     pz     px    dxy    dyz    dz2    dxz  x2-y2    tot
    1  0.494  0.000  0.000  0.000  0.000  0.000  0.000  0.000  0.000  0.494
    2  0.494  0.000  0.000  0.000  0.000  0.000  0.000  0.000  0.000  0.494
    3  0.000  0.000  0.000  0.000  0.000  0.000  0.000  0.000  0.000  0.000
    4  0.000  0.000  0.000  0.000  0.000  0.000  0.000  0.000  0.000  0.000
    5  0.000  0.000  0.000  0.000  0.000  0.000  0.000  0.000  0.000  0.000
    6  0.000  0.000  0.000  0.000  0.000  0.000  0.000  0.000  0.000  0.000
    7  0.000  0.000  0.000  0.000  0.000  0.000  0.000  0.000  0.000  0.000
    8  0.000  0.000  0.000  0.000  0.000  0.000  0.000  0.000  0.000  0.000
tot    0.988  0.000  0.000  0.000  0.000  0.000  0.000  0.000  0.000  0.988
 
band     3 # energy  -41.29257934 # occ.  1.00000000
 
ion      s     py     pz     px    dxy    dyz    dz2    dxz  x2-y2    tot
    1  0.000  0.000  0.000  0.000  0.000  0.000  0.000  0.000  0.000  0.000
    2  0.000  0.000  0.000  0.000  0.000  0.000  0.000  0.000  0.000  0.000
    3  0.496  0.000  0.000  0.000  0.000  0.000  0.000  0.000  0.000  0.496
    4  0.490  0.000  0.000  0.000  0.000  0.000  0.000  0.000  0.000  0.490
    5  0.000  0.000  0.000  0.000  0.000  0.000  0.000  0.000  0.000  0.000
    6  0.000  0.000  0.000  0.000  0.000  0.000  0.000  0.000  0.000  0.000
    7  0.000  0.000  0.000  0.000  0.000  0.000  0.000  0.000  0.000  0.000
    8  0.000  0.000  0.000  0.000  0.000  0.000  0.000  0.000  0.000  0.000
tot    0.987  0.000  0.000  0.000  0.000  0.000  0.000  0.000  0.000  0.987
 
band     4 # energy  -41.28711522 # occ.  1.00000000
 
ion      s     py     pz     px    dxy    dyz    dz2    dxz  x2-y2    tot
    1  0.007  0.000  0.000  0.000  0.000  0.000  0.000  0.000  0.000  0.007
    2  0.007  0.000  0.000  0.000  0.000  0.000  0.000  0.000  0.000  0.007
    3  0.483  0.000  0.000  0.000  0.000  0.000  0.000  0.000  0.000  0.483
    4  0.490  0.000  0.000  0.000  0.000  0.000  0.000  0.000  0.000  0.490
    5  0.000  0.000  0.000  0.000  0.000  0.000  0.000  0.000  0.000  0.000
    6  0.000  0.000  0.000  0.000  0.000  0.000  0.000  0.000  0.000  0.000
    7  0.000  0.000  0.000  0.000  0.000  0.000  0.000  0.000  0.000  0.000
    8  0.000  0.000  0.000  0.000  0.000  0.000  0.000  0.000  0.000  0.000
tot    0.988  0.000  0.000  0.000  0.000  0.000  0.000  0.000  0.000  0.988
 
band     5 # energy  -18.13188495 # occ.  1.00000000
 
ion      s     py     pz     px    dxy    dyz    dz2    dxz  x2-y2    tot
    1  0.002  0.000  0.000  0.000  0.000  0.000  0.000  0.000  0.000  0.002
    2  0.002  0.000  0.000  0.000  0.000  0.000  0.000  0.000  0.000  0.002
    3  0.006  0.000  0.000  0.000  0.000  0.000  0.000  0.000  0.000  0.006
    4  0.006  0.000  0.000  0.000  0.000  0.000  0.000  0.000  0.000  0.006
    5  0.182  0.000  0.011  0.000  0.000  0.000  0.000  0.000  0.000  0.193
    6  0.182  0.000  0.011  0.000  0.000  0.000  0.000  0.000  0.000  0.193
    7  0.182  0.000  0.011  0.000  0.000  0.000  0.000  0.000  0.000  0.193
    8  0.182  0.000  0.011  0.000  0.000  0.000  0.000  0.000  0.000  0.193
tot    0.743  0.000  0.043  0.000  0.000  0.000  0.000  0.000  0.000  0.786
 
band     6 # energy  -17.94376120 # occ.  1.00000000
 
ion      s     py     pz     px    dxy    dyz    dz2    dxz  x2-y2    tot
    1  0.000  0.000  0.000  0.000  0.000  0.000  0.000  0.000  0.000  0.000
    2  0.000  0.000  0.000  0.000  0.000  0.000  0.000  0.000  0.000  0.000
    3  0.005  0.000  0.000  0.000  0.000  0.000  0.000  0.000  0.000  0.005
    4  0.005  0.000  0.000  0.000  0.000  0.000  0.000  0.000  0.000  0.005
    5  0.184  0.000  0.013  0.000  0.000  0.000  0.000  0.000  0.000  0.196
    6  0.184  0.000  0.013  0.000  0.000  0.000  0.000  0.000  0.000  0.196
    7  0.184  0.000  0.013  0.000  0.000  0.000  0.000  0.000  0.000  0.196
    8  0.184  0.000  0.013  0.000  0.000  0.000  0.000  0.000  0.000  0.196
tot    0.746  0.000  0.052  0.000  0.000  0.000  0.000  0.000  0.000  0.797
 
band     7 # energy  -13.14561629 # occ.  1.00000000
 
ion      s     py     pz     px    dxy    dyz    dz2    dxz  x2-y2    tot
    1  0.004  0.000  0.000  0.000  0.000  0.000  0.000  0.000  0.000  0.004
    2  0.004  0.000  0.000  0.000  0.000  0.000  0.000  0.000  0.000  0.004
    3  0.000  0.000  0.001  0.000  0.000  0.000  0.000  0.000  0.000  0.001
    4  0.000  0.000  0.001  0.000  0.000  0.000  0.000  0.000  0.000  0.001
    5  0.183  0.000  0.006  0.000  0.000  0.000  0.000  0.000  0.000  0.188
    6  0.183  0.000  0.006  0.000  0.000  0.000  0.000  0.000  0.000  0.188
    7  0.183  0.000  0.006  0.000  0.000  0.000  0.000  0.000  0.000  0.188
    8  0.183  0.000  0.006  0.000  0.000  0.000  0.000  0.000  0.000  0.188
tot    0.739  0.000  0.025  0.000  0.000  0.000  0.000  0.000  0.000  0.764
 
band     8 # energy  -12.42132433 # occ.  1.00000000
 
ion      s     py     pz     px    dxy    dyz    dz2    dxz  x2-y2    tot
    1  0.000  0.000  0.001  0.000  0.000  0.000  0.000  0.000  0.000  0.001
    2  0.000  0.000  0.001  0.000  0.000  0.000  0.000  0.000  0.000  0.001
    3  0.000  0.000  0.001  0.000  0.000  0.000  0.000  0.000  0.000  0.001
    4  0.000  0.000  0.001  0.000  0.000  0.000  0.000  0.000  0.000  0.001
    5  0.198  0.000  0.005  0.000  0.000  0.000  0.000  0.000  0.000  0.203
    6  0.198  0.000  0.005  0.000  0.000  0.000  0.000  0.000  0.000  0.203
    7  0.198  0.000  0.005  0.000  0.000  0.000  0.000  0.000  0.000  0.203
    8  0.198  0.000  0.005  0.000  0.000  0.000  0.000  0.000  0.000  0.203
tot    0.793  0.000  0.021  0.000  0.000  0.000  0.000  0.000  0.000  0.814
 
band     9 # energy   -4.02338018 # occ.  1.00000000
 
ion      s     py     pz     px    dxy    dyz    dz2    dxz  x2-y2    tot
    1  0.008  0.000  0.000  0.000  0.000  0.000  0.000  0.000  0.000  0.008
    2  0.008  0.000  0.000  0.000  0.000  0.000  0.000  0.000  0.000  0.008
    3  0.000  0.000  0.000  0.000  0.000  0.000  0.000  0.000  0.000  0.000
    4  0.000  0.000  0.000  0.000  0.000  0.000  0.000  0.000  0.000  0.000
    5  0.004  0.000  0.160  0.000  0.000  0.000  0.000  0.000  0.000  0.164
    6  0.004  0.000  0.160  0.000  0.000  0.000  0.000  0.000  0.000  0.164
    7  0.004  0.000  0.160  0.000  0.000  0.000  0.000  0.000  0.000  0.164
    8  0.004  0.000  0.160  0.000  0.000  0.000  0.000  0.000  0.000  0.164
tot    0.031  0.000  0.642  0.000  0.000  0.000  0.000  0.000  0.000  0.673
 
band    10 # energy   -2.23908453 # occ.  1.00000000
 
ion      s     py     pz     px    dxy    dyz    dz2    dxz  x2-y2    tot
    1  0.000  0.000  0.001  0.000  0.000  0.000  0.000  0.000  0.000  0.001
    2  0.000  0.000  0.001  0.000  0.000  0.000  0.000  0.000  0.000  0.001
    3  0.000  0.000  0.000  0.000  0.000  0.000  0.000  0.000  0.000  0.000
    4  0.000  0.000  0.000  0.000  0.000  0.000  0.000  0.000  0.000  0.000
    5  0.012  0.000  0.187  0.000  0.000  0.000  0.000  0.000  0.000  0.199
    6  0.012  0.000  0.187  0.000  0.000  0.000  0.000  0.000  0.000  0.199
    7  0.012  0.000  0.187  0.000  0.000  0.000  0.000  0.000  0.000  0.199
    8  0.012  0.000  0.187  0.000  0.000  0.000  0.000  0.000  0.000  0.199
tot    0.049  0.000  0.751  0.000  0.000  0.000  0.000  0.000  0.000  0.799
 
band    11 # energy   -0.95341860 # occ.  1.00000000
 
ion      s     py     pz     px    dxy    dyz    dz2    dxz  x2-y2    tot
    1  0.000  0.000  0.000  0.000  0.000  0.000  0.000  0.000  0.000  0.000
    2  0.000  0.000  0.000  0.000  0.000  0.000  0.000  0.000  0.000  0.000
    3  0.000  0.000  0.000  0.004  0.000  0.000  0.000  0.000  0.000  0.004
    4  0.000  0.000  0.000  0.004  0.000  0.000  0.000  0.000  0.000  0.004
    5  0.000  0.000  0.000  0.175  0.000  0.000  0.000  0.000  0.000  0.175
    6  0.000  0.000  0.000  0.175  0.000  0.000  0.000  0.000  0.000  0.175
    7  0.000  0.000  0.000  0.175  0.000  0.000  0.000  0.000  0.000  0.175
    8  0.000  0.000  0.000  0.175  0.000  0.000  0.000  0.000  0.000  0.175
tot    0.000  0.000  0.000  0.707  0.000  0.000  0.000  0.000  0.000  0.707
 
band    12 # energy   -0.95340321 # occ.  1.00000000
 
ion      s     py     pz     px    dxy    dyz    dz2    dxz  x2-y2    tot
    1  0.000  0.000  0.000  0.000  0.000  0.000  0.000  0.000  0.000  0.000
    2  0.000  0.000  0.000  0.000  0.000  0.000  0.000  0.000  0.000  0.000
    3  0.000  0.004  0.000  0.000  0.000  0.000  0.000  0.000  0.000  0.004
    4  0.000  0.004  0.000  0.000  0.000  0.000  0.000  0.000  0.000  0.004
    5  0.000  0.175  0.000  0.000  0.000  0.000  0.000  0.000  0.000  0.175
    6  0.000  0.175  0.000  0.000  0.000  0.000  0.000  0.000  0.000  0.175
    7  0.000  0.175  0.000  0.000  0.000  0.000  0.000  0.000  0.000  0.175
    8  0.000  0.175  0.000  0.000  0.000  0.000  0.000  0.000  0.000  0.175
tot    0.000  0.707  0.000  0.000  0.000  0.000  0.000  0.000  0.000  0.707
 
band    13 # energy   -0.79197812 # occ.  1.00000000
 
ion      s     py     pz     px    dxy    dyz    dz2    dxz  x2-y2    tot
    1  0.000  0.000  0.000  0.001  0.000  0.000  0.000  0.000  0.000  0.001
    2  0.000  0.000  0.000  0.001  0.000  0.000  0.000  0.000  0.000  0.001
    3  0.000  0.000  0.000  0.004  0.000  0.000  0.000  0.000  0.000  0.004
    4  0.000  0.000  0.000  0.004  0.000  0.000  0.000  0.000  0.000  0.004
    5  0.000  0.000  0.000  0.177  0.000  0.000  0.000  0.000  0.000  0.177
    6  0.000  0.000  0.000  0.177  0.000  0.000  0.000  0.000  0.000  0.177
    7  0.000  0.000  0.000  0.177  0.000  0.000  0.000  0.000  0.000  0.177
    8  0.000  0.000  0.000  0.177  0.000  0.000  0.000  0.000  0.000  0.177
tot    0.000  0.000  0.000  0.718  0.000  0.000  0.000  0.000  0.000  0.718
 
band    14 # energy   -0.79196925 # occ.  1.00000000
 
ion      s     py     pz     px    dxy    dyz    dz2    dxz  x2-y2    tot
    1  0.000  0.001  0.000  0.000  0.000  0.000  0.000  0.000  0.000  0.001
    2  0.000  0.001  0.000  0.000  0.000  0.000  0.000  0.000  0.000  0.001
    3  0.000  0.004  0.000  0.000  0.000  0.000  0.000  0.000  0.000  0.004
    4  0.000  0.004  0.000  0.000  0.000  0.000  0.000  0.000  0.000  0.004
    5  0.000  0.177  0.000  0.000  0.000  0.000  0.000  0.000  0.000  0.177
    6  0.000  0.177  0.000  0.000  0.000  0.000  0.000  0.000  0.000  0.177
    7  0.000  0.177  0.000  0.000  0.000  0.000  0.000  0.000  0.000  0.177
    8  0.000  0.177  0.000  0.000  0.000  0.000  0.000  0.000  0.000  0.177
tot    0.000  0.718  0.000  0.000  0.000  0.000  0.000  0.000  0.000  0.718
 
band    15 # energy    2.15702866 # occ.  1.00000000
 
ion      s     py     pz     px    dxy    dyz    dz2    dxz  x2-y2    tot
    1  0.000  0.000  0.000  0.000  0.000  0.000  0.000  0.000  0.000  0.000
    2  0.000  0.000  0.000  0.000  0.000  0.000  0.000  0.000  0.000  0.000
    3  0.000  0.000  0.000  0.000  0.000  0.000  0.000  0.000  0.000  0.000
    4  0.000  0.000  0.000  0.000  0.000  0.000  0.000  0.000  0.000  0.000
    5  0.000  0.000  0.000  0.191  0.000  0.000  0.000  0.000  0.000  0.191
    6  0.000  0.000  0.000  0.192  0.000  0.000  0.000  0.000  0.000  0.192
    7  0.000  0.000  0.000  0.192  0.000  0.000  0.000  0.000  0.000  0.192
    8  0.000  0.000  0.000  0.191  0.000  0.000  0.000  0.000  0.000  0.191
tot    0.000  0.000  0.000  0.766  0.000  0.000  0.000  0.000  0.000  0.766
 
band    16 # energy    2.15703744 # occ.  1.00000000
 
ion      s     py     pz     px    dxy    dyz    dz2    dxz  x2-y2    tot
    1  0.000  0.000  0.000  0.000  0.000  0.000  0.000  0.000  0.000  0.000
    2  0.000  0.000  0.000  0.000  0.000  0.000  0.000  0.000  0.000  0.000
    3  0.000  0.000  0.000  0.000  0.000  0.000  0.000  0.000  0.000  0.000
    4  0.000  0.000  0.000  0.000  0.000  0.000  0.000  0.000  0.000  0.000
    5  0.000  0.191  0.000  0.000  0.000  0.000  0.000  0.000  0.000  0.191
    6  0.000  0.192  0.000  0.000  0.000  0.000  0.000  0.000  0.000  0.192
    7  0.000  0.192  0.000  0.000  0.000  0.000  0.000  0.000  0.000  0.192
    8  0.000  0.191  0.000  0.000  0.000  0.000  0.000  0.000  0.000  0.191
tot    0.000  0.766  0.000  0.000  0.000  0.000  0.000  0.000  0.000  0.766
 
band    17 # energy    2.40442342 # occ.  1.00000000
 
ion      s     py     pz     px    dxy    dyz    dz2    dxz  x2-y2    tot
    1  0.000  0.003  0.000  0.000  0.000  0.000  0.000  0.000  0.000  0.003
    2  0.000  0.003  0.000  0.000  0.000  0.000  0.000  0.000  0.000  0.003
    3  0.000  0.000  0.000  0.000  0.000  0.000  0.000  0.000  0.000  0.000
    4  0.000  0.000  0.000  0.000  0.000  0.000  0.000  0.000  0.000  0.000
    5  0.000  0.195  0.000  0.000  0.000  0.000  0.000  0.000  0.000  0.195
    6  0.000  0.195  0.000  0.000  0.000  0.000  0.000  0.000  0.000  0.195
    7  0.000  0.195  0.000  0.000  0.000  0.000  0.000  0.000  0.000  0.195
    8  0.000  0.195  0.000  0.000  0.000  0.000  0.000  0.000  0.000  0.195
tot    0.000  0.788  0.000  0.000  0.000  0.000  0.000  0.000  0.000  0.788
 
band    18 # energy    2.40442579 # occ.  1.00000000
 
ion      s     py     pz     px    dxy    dyz    dz2    dxz  x2-y2    tot
    1  0.000  0.000  0.000  0.003  0.000  0.000  0.000  0.000  0.000  0.003
    2  0.000  0.000  0.000  0.003  0.000  0.000  0.000  0.000  0.000  0.003
    3  0.000  0.000  0.000  0.000  0.000  0.000  0.000  0.000  0.000  0.000
    4  0.000  0.000  0.000  0.000  0.000  0.000  0.000  0.000  0.000  0.000
    5  0.000  0.000  0.000  0.195  0.000  0.000  0.000  0.000  0.000  0.195
    6  0.000  0.000  0.000  0.195  0.000  0.000  0.000  0.000  0.000  0.195
    7  0.000  0.000  0.000  0.195  0.000  0.000  0.000  0.000  0.000  0.195
    8  0.000  0.000  0.000  0.195  0.000  0.000  0.000  0.000  0.000  0.195
tot    0.000  0.000  0.000  0.788  0.000  0.000  0.000  0.000  0.000  0.788
 
band    19 # energy    4.44500969 # occ.  0.00000000
 
ion      s     py     pz     px    dxy    dyz    dz2    dxz  x2-y2    tot
    1  0.015  0.000  0.000  0.000  0.000  0.000  0.000  0.000  0.000  0.015
    2  0.015  0.000  0.000  0.000  0.000  0.000  0.000  0.000  0.000  0.015
    3  0.000  0.000  0.000  0.000  0.000  0.000  0.000  0.000  0.000  0.000
    4  0.000  0.000  0.000  0.000  0.000  0.000  0.000  0.000  0.000  0.000
    5  0.033  0.000  0.121  0.000  0.000  0.000  0.000  0.000  0.000  0.154
    6  0.033  0.000  0.121  0.000  0.000  0.000  0.000  0.000  0.000  0.154
    7  0.033  0.000  0.121  0.000  0.000  0.000  0.000  0.000  0.000  0.154
    8  0.033  0.000  0.121  0.000  0.000  0.000  0.000  0.000  0.000  0.154
tot    0.161  0.000  0.485  0.000  0.000  0.000  0.000  0.000  0.000  0.647
 
band    20 # energy    6.67554613 # occ.  0.00000000
 
ion      s     py     pz     px    dxy    dyz    dz2    dxz  x2-y2    tot
    1  0.000  0.000  0.000  0.000  0.000  0.000  0.000  0.000  0.000  0.000
    2  0.000  0.000  0.000  0.000  0.000  0.000  0.000  0.000  0.000  0.000
    3  0.000  0.000  0.004  0.000  0.000  0.000  0.000  0.000  0.000  0.004
    4  0.000  0.000  0.004  0.000  0.000  0.000  0.000  0.000  0.000  0.004
    5  0.005  0.000  0.199  0.000  0.000  0.000  0.000  0.000  0.000  0.205
    6  0.005  0.000  0.199  0.000  0.000  0.000  0.000  0.000  0.000  0.205
    7  0.005  0.000  0.199  0.000  0.000  0.000  0.000  0.000  0.000  0.205
    8  0.005  0.000  0.199  0.000  0.000  0.000  0.000  0.000  0.000  0.205
tot    0.022  0.000  0.805  0.000  0.000  0.000  0.000  0.000  0.000  0.827
 
band    21 # energy    8.53236413 # occ.  0.00000000
 
ion      s     py     pz     px    dxy    dyz    dz2    dxz  x2-y2    tot
    1  0.000  0.000  0.043  0.000  0.000  0.000  0.000  0.000  0.000  0.043
    2  0.000  0.000  0.043  0.000  0.000  0.000  0.000  0.000  0.000  0.043
    3  0.042  0.000  0.000  0.000  0.000  0.000  0.000  0.000  0.000  0.042
    4  0.042  0.000  0.000  0.000  0.000  0.000  0.000  0.000  0.000  0.042
    5  0.023  0.000  0.000  0.000  0.000  0.000  0.000  0.000  0.000  0.023
    6  0.023  0.000  0.000  0.000  0.000  0.000  0.000  0.000  0.000  0.023
    7  0.023  0.000  0.000  0.000  0.000  0.000  0.000  0.000  0.000  0.023
    8  0.023  0.000  0.000  0.000  0.000  0.000  0.000  0.000  0.000  0.023
tot    0.175  0.000  0.087  0.000  0.000  0.000  0.000  0.000  0.000  0.262
 
band    22 # energy    8.93572428 # occ.  0.00000000
 
ion      s     py     pz     px    dxy    dyz    dz2    dxz  x2-y2    tot
    1  0.034  0.000  0.000  0.000  0.000  0.000  0.000  0.000  0.000  0.034
    2  0.034  0.000  0.000  0.000  0.000  0.000  0.000  0.000  0.000  0.034
    3  0.041  0.000  0.000  0.000  0.000  0.000  0.000  0.000  0.000  0.041
    4  0.041  0.000  0.000  0.000  0.000  0.000  0.000  0.000  0.000  0.041
    5  0.039  0.000  0.008  0.000  0.000  0.000  0.000  0.000  0.000  0.047
    6  0.039  0.000  0.008  0.000  0.000  0.000  0.000  0.000  0.000  0.047
    7  0.039  0.000  0.008  0.000  0.000  0.000  0.000  0.000  0.000  0.047
    8  0.039  0.000  0.008  0.000  0.000  0.000  0.000  0.000  0.000  0.047
tot    0.304  0.000  0.033  0.000  0.000  0.000  0.000  0.000  0.000  0.337
 
band    23 # energy   11.12161511 # occ.  0.00000000
 
ion      s     py     pz     px    dxy    dyz    dz2    dxz  x2-y2    tot
    1  0.036  0.000  0.000  0.000  0.000  0.000  0.000  0.000  0.000  0.036
    2  0.036  0.000  0.000  0.000  0.000  0.000  0.000  0.000  0.000  0.036
    3  0.000  0.000  0.058  0.000  0.000  0.000  0.000  0.000  0.000  0.058
    4  0.000  0.000  0.058  0.000  0.000  0.000  0.000  0.000  0.000  0.058
    5  0.017  0.000  0.064  0.000  0.000  0.000  0.000  0.000  0.000  0.081
    6  0.017  0.000  0.064  0.000  0.000  0.000  0.000  0.000  0.000  0.081
    7  0.017  0.000  0.064  0.000  0.000  0.000  0.000  0.000  0.000  0.081
    8  0.017  0.000  0.064  0.000  0.000  0.000  0.000  0.000  0.000  0.081
tot    0.139  0.000  0.375  0.000  0.000  0.000  0.000  0.000  0.000  0.514
 
band    24 # energy   11.20498633 # occ.  0.00000000
 
ion      s     py     pz     px    dxy    dyz    dz2    dxz  x2-y2    tot
    1  0.000  0.000  0.070  0.000  0.000  0.000  0.000  0.000  0.000  0.070
    2  0.000  0.000  0.070  0.000  0.000  0.000  0.000  0.000  0.000  0.070
    3  0.000  0.000  0.068  0.000  0.000  0.000  0.000  0.000  0.000  0.068
    4  0.000  0.000  0.068  0.000  0.000  0.000  0.000  0.000  0.000  0.068
    5  0.024  0.000  0.004  0.000  0.000  0.000  0.000  0.000  0.000  0.028
    6  0.024  0.000  0.004  0.000  0.000  0.000  0.000  0.000  0.000  0.028
    7  0.024  0.000  0.004  0.000  0.000  0.000  0.000  0.000  0.000  0.028
    8  0.024  0.000  0.004  0.000  0.000  0.000  0.000  0.000  0.000  0.028
tot    0.097  0.000  0.291  0.000  0.000  0.000  0.000  0.000  0.000  0.388
 

 k-point     2 :    0.08333333 0.00000000 0.00000000     weight = 0.01041667

band     1 # energy  -41.70801703 # occ.  1.00000000
 
ion      s     py     pz     px    dxy    dyz    dz2    dxz  x2-y2    tot
    1  0.488  0.000  0.000  0.000  0.000  0.000  0.000  0.000  0.000  0.488
    2  0.488  0.000  0.000  0.000  0.000  0.000  0.000  0.000  0.000  0.488
    3  0.006  0.000  0.000  0.000  0.000  0.000  0.000  0.000  0.000  0.006
    4  0.006  0.000  0.000  0.000  0.000  0.000  0.000  0.000  0.000  0.006
    5  0.000  0.000  0.000  0.000  0.000  0.000  0.000  0.000  0.000  0.000
    6  0.000  0.000  0.000  0.000  0.000  0.000  0.000  0.000  0.000  0.000
    7  0.000  0.000  0.000  0.000  0.000  0.000  0.000  0.000  0.000  0.000
    8  0.000  0.000  0.000  0.000  0.000  0.000  0.000  0.000  0.000  0.000
tot    0.988  0.000  0.000  0.000  0.000  0.000  0.000  0.000  0.000  0.988
 
band     2 # energy  -41.70205741 # occ.  1.00000000
 
ion      s     py     pz     px    dxy    dyz    dz2    dxz  x2-y2    tot
    1  0.494  0.000  0.000  0.000  0.000  0.000  0.000  0.000  0.000  0.494
    2  0.494  0.000  0.000  0.000  0.000  0.000  0.000  0.000  0.000  0.494
    3  0.000  0.000  0.000  0.000  0.000  0.000  0.000  0.000  0.000  0.000
    4  0.000  0.000  0.000  0.000  0.000  0.000  0.000  0.000  0.000  0.000
    5  0.000  0.000  0.000  0.000  0.000  0.000  0.000  0.000  0.000  0.000
    6  0.000  0.000  0.000  0.000  0.000  0.000  0.000  0.000  0.000  0.000
    7  0.000  0.000  0.000  0.000  0.000  0.000  0.000  0.000  0.000  0.000
    8  0.000  0.000  0.000  0.000  0.000  0.000  0.000  0.000  0.000  0.000
tot    0.988  0.000  0.000  0.000  0.000  0.000  0.000  0.000  0.000  0.988
 
band     3 # energy  -41.29128643 # occ.  1.00000000
 
ion      s     py     pz     px    dxy    dyz    dz2    dxz  x2-y2    tot
    1  0.000  0.000  0.000  0.000  0.000  0.000  0.000  0.000  0.000  0.000
    2  0.000  0.000  0.000  0.000  0.000  0.000  0.000  0.000  0.000  0.000
    3  0.497  0.000  0.000  0.000  0.000  0.000  0.000  0.000  0.000  0.497
    4  0.490  0.000  0.000  0.000  0.000  0.000  0.000  0.000  0.000  0.490
    5  0.000  0.000  0.000  0.000  0.000  0.000  0.000  0.000  0.000  0.000
    6  0.000  0.000  0.000  0.000  0.000  0.000  0.000  0.000  0.000  0.000
    7  0.000  0.000  0.000  0.000  0.000  0.000  0.000  0.000  0.000  0.000
    8  0.000  0.000  0.000  0.000  0.000  0.000  0.000  0.000  0.000  0.000
tot    0.987  0.000  0.000  0.000  0.000  0.000  0.000  0.000  0.000  0.987
 
band     4 # energy  -41.28619132 # occ.  1.00000000
 
ion      s     py     pz     px    dxy    dyz    dz2    dxz  x2-y2    tot
    1  0.007  0.000  0.000  0.000  0.000  0.000  0.000  0.000  0.000  0.007
    2  0.007  0.000  0.000  0.000  0.000  0.000  0.000  0.000  0.000  0.007
    3  0.484  0.000  0.000  0.000  0.000  0.000  0.000  0.000  0.000  0.484
    4  0.491  0.000  0.000  0.000  0.000  0.000  0.000  0.000  0.000  0.491
    5  0.000  0.000  0.000  0.000  0.000  0.000  0.000  0.000  0.000  0.000
    6  0.000  0.000  0.000  0.000  0.000  0.000  0.000  0.000  0.000  0.000
    7  0.000  0.000  0.000  0.000  0.000  0.000  0.000  0.000  0.000  0.000
    8  0.000  0.000  0.000  0.000  0.000  0.000  0.000  0.000  0.000  0.000
tot    0.988  0.000  0.000  0.000  0.000  0.000  0.000  0.000  0.000  0.988
 
band     5 # energy  -18.12086284 # occ.  1.00000000
 
ion      s     py     pz     px    dxy    dyz    dz2    dxz  x2-y2    tot
    1  0.001  0.000  0.000  0.000  0.000  0.000  0.000  0.000  0.000  0.002
    2  0.001  0.000  0.000  0.000  0.000  0.000  0.000  0.000  0.000  0.002
    3  0.005  0.000  0.000  0.000  0.000  0.000  0.000  0.000  0.000  0.005
    4  0.005  0.000  0.000  0.000  0.000  0.000  0.000  0.000  0.000  0.005
    5  0.182  0.000  0.011  0.000  0.000  0.000  0.000  0.000  0.000  0.193
    6  0.182  0.000  0.011  0.000  0.000  0.000  0.000  0.000  0.000  0.193
    7  0.182  0.000  0.011  0.000  0.000  0.000  0.000  0.000  0.000  0.193
    8  0.182  0.000  0.011  0.000  0.000  0.000  0.000  0.000  0.000  0.193
tot    0.743  0.000  0.043  0.000  0.000  0.000  0.000  0.000  0.000  0.786
 
band     6 # energy  -17.93646596 # occ.  1.00000000
 
ion      s     py     pz     px    dxy    dyz    dz2    dxz  x2-y2    tot
    1  0.000  0.000  0.000  0.000  0.000  0.000  0.000  0.000  0.000  0.000
    2  0.000  0.000  0.000  0.000  0.000  0.000  0.000  0.000  0.000  0.000
    3  0.005  0.000  0.000  0.000  0.000  0.000  0.000  0.000  0.000  0.005
    4  0.005  0.000  0.000  0.000  0.000  0.000  0.000  0.000  0.000  0.005
    5  0.184  0.000  0.013  0.000  0.000  0.000  0.000  0.000  0.000  0.197
    6  0.184  0.000  0.013  0.000  0.000  0.000  0.000  0.000  0.000  0.197
    7  0.184  0.000  0.013  0.000  0.000  0.000  0.000  0.000  0.000  0.197
    8  0.184  0.000  0.013  0.000  0.000  0.000  0.000  0.000  0.000  0.197
tot    0.746  0.000  0.052  0.000  0.000  0.000  0.000  0.000  0.000  0.798
 
band     7 # energy  -13.11653790 # occ.  1.00000000
 
ion      s     py     pz     px    dxy    dyz    dz2    dxz  x2-y2    tot
    1  0.004  0.000  0.000  0.000  0.000  0.000  0.000  0.000  0.000  0.004
    2  0.004  0.000  0.000  0.000  0.000  0.000  0.000  0.000  0.000  0.004
    3  0.000  0.000  0.001  0.000  0.000  0.000  0.000  0.000  0.000  0.001
    4  0.000  0.000  0.001  0.000  0.000  0.000  0.000  0.000  0.000  0.001
    5  0.183  0.000  0.006  0.000  0.000  0.000  0.000  0.000  0.000  0.189
    6  0.183  0.000  0.006  0.000  0.000  0.000  0.000  0.000  0.000  0.189
    7  0.183  0.000  0.006  0.000  0.000  0.000  0.000  0.000  0.000  0.189
    8  0.183  0.000  0.006  0.000  0.000  0.000  0.000  0.000  0.000  0.189
tot    0.740  0.000  0.025  0.000  0.000  0.000  0.000  0.000  0.000  0.766
 
band     8 # energy  -12.40565192 # occ.  1.00000000
 
ion      s     py     pz     px    dxy    dyz    dz2    dxz  x2-y2    tot
    1  0.000  0.000  0.001  0.000  0.000  0.000  0.000  0.000  0.000  0.001
    2  0.000  0.000  0.001  0.000  0.000  0.000  0.000  0.000  0.000  0.001
    3  0.000  0.000  0.001  0.000  0.000  0.000  0.000  0.000  0.000  0.001
    4  0.000  0.000  0.001  0.000  0.000  0.000  0.000  0.000  0.000  0.001
    5  0.199  0.000  0.005  0.000  0.000  0.000  0.000  0.000  0.000  0.203
    6  0.199  0.000  0.005  0.000  0.000  0.000  0.000  0.000  0.000  0.203
    7  0.199  0.000  0.005  0.000  0.000  0.000  0.000  0.000  0.000  0.203
    8  0.199  0.000  0.005  0.000  0.000  0.000  0.000  0.000  0.000  0.203
tot    0.794  0.000  0.021  0.000  0.000  0.000  0.000  0.000  0.000  0.815
 
band     9 # energy   -4.00694688 # occ.  1.00000000
 
ion      s     py     pz     px    dxy    dyz    dz2    dxz  x2-y2    tot
    1  0.008  0.000  0.000  0.000  0.000  0.000  0.000  0.000  0.000  0.008
    2  0.008  0.000  0.000  0.000  0.000  0.000  0.000  0.000  0.000  0.008
    3  0.000  0.000  0.000  0.000  0.000  0.000  0.000  0.000  0.000  0.000
    4  0.000  0.000  0.000  0.000  0.000  0.000  0.000  0.000  0.000  0.000
    5  0.004  0.000  0.160  0.000  0.000  0.000  0.000  0.000  0.000  0.164
    6  0.004  0.000  0.160  0.000  0.000  0.000  0.000  0.000  0.000  0.164
    7  0.004  0.000  0.160  0.000  0.000  0.000  0.000  0.000  0.000  0.164
    8  0.004  0.000  0.160  0.000  0.000  0.000  0.000  0.000  0.000  0.164
tot    0.031  0.001  0.640  0.002  0.000  0.000  0.000  0.000  0.000  0.673
 
band    10 # energy   -2.24881844 # occ.  1.00000000
 
ion      s     py     pz     px    dxy    dyz    dz2    dxz  x2-y2    tot
    1  0.000  0.000  0.001  0.000  0.000  0.000  0.000  0.000  0.000  0.001
    2  0.000  0.000  0.001  0.000  0.000  0.000  0.000  0.000  0.000  0.001
    3  0.000  0.000  0.000  0.000  0.000  0.000  0.000  0.000  0.000  0.000
    4  0.000  0.000  0.000  0.000  0.000  0.000  0.000  0.000  0.000  0.000
    5  0.012  0.000  0.187  0.000  0.000  0.000  0.000  0.000  0.000  0.199
    6  0.012  0.000  0.187  0.000  0.000  0.000  0.000  0.000  0.000  0.199
    7  0.012  0.000  0.187  0.000  0.000  0.000  0.000  0.000  0.000  0.199
    8  0.012  0.000  0.187  0.000  0.000  0.000  0.000  0.000  0.000  0.199
tot    0.049  0.000  0.750  0.000  0.000  0.000  0.000  0.000  0.000  0.799
 
band    11 # energy   -1.11788312 # occ.  1.00000000
 
ion      s     py     pz     px    dxy    dyz    dz2    dxz  x2-y2    tot
    1  0.000  0.000  0.000  0.000  0.000  0.000  0.000  0.000  0.000  0.001
    2  0.000  0.000  0.000  0.000  0.000  0.000  0.000  0.000  0.000  0.001
    3  0.001  0.001  0.000  0.003  0.000  0.000  0.000  0.000  0.000  0.005
    4  0.001  0.001  0.000  0.003  0.000  0.000  0.000  0.000  0.000  0.005
    5  0.000  0.043  0.000  0.128  0.000  0.000  0.000  0.000  0.000  0.170
    6  0.000  0.043  0.000  0.128  0.000  0.000  0.000  0.000  0.000  0.170
    7  0.000  0.043  0.000  0.128  0.000  0.000  0.000  0.000  0.000  0.170
    8  0.000  0.043  0.000  0.128  0.000  0.000  0.000  0.000  0.000  0.170
tot    0.003  0.172  0.001  0.517  0.000  0.000  0.000  0.000  0.000  0.694
 
band    12 # energy   -1.01763882 # occ.  1.00000000
 
ion      s     py     pz     px    dxy    dyz    dz2    dxz  x2-y2    tot
    1  0.000  0.000  0.000  0.000  0.000  0.000  0.000  0.000  0.000  0.001
    2  0.000  0.000  0.000  0.000  0.000  0.000  0.000  0.000  0.000  0.001
    3  0.000  0.004  0.000  0.001  0.000  0.000  0.000  0.000  0.000  0.005
    4  0.000  0.004  0.000  0.001  0.000  0.000  0.000  0.000  0.000  0.005
    5  0.000  0.130  0.000  0.043  0.000  0.000  0.000  0.000  0.000  0.173
    6  0.000  0.130  0.000  0.043  0.000  0.000  0.000  0.000  0.000  0.173
    7  0.000  0.130  0.000  0.043  0.000  0.000  0.000  0.000  0.000  0.173
    8  0.000  0.130  0.000  0.043  0.000  0.000  0.000  0.000  0.000  0.173
tot    0.000  0.527  0.000  0.176  0.000  0.000  0.000  0.000  0.000  0.703
 
band    13 # energy   -0.90136515 # occ.  1.00000000
 
ion      s     py     pz     px    dxy    dyz    dz2    dxz  x2-y2    tot
    1  0.000  0.000  0.000  0.001  0.000  0.000  0.000  0.000  0.000  0.001
    2  0.000  0.000  0.000  0.001  0.000  0.000  0.000  0.000  0.000  0.001
    3  0.001  0.001  0.000  0.003  0.000  0.000  0.000  0.000  0.000  0.005