<?xml version="1.0" encoding="ISO-8859-1"?>
<modeling>
 <generator>
  <i name="program" type="string">vasp </i>
  <i name="version" type="string">5.4.4.18Apr17-6-g9f103f2a35  </i>
  <i name="subversion" type="string">(build Aug 12 2020 11:57:02) complex            parallel </i>
  <i name="platform" type="string">LinuxIFC </i>
  <i name="date" type="string">2021 02 03 </i>
  <i name="time" type="string">06:48:25 </i>
 </generator>
 <incar>
  <i type="string" name="PREC">accurate</i>
  <i type="string" name="ALGO"> Fast</i>
  <i type="int" name="NSIM">     4</i>
  <i type="int" name="ISPIN">     2</i>
  <i type="int" name="NELM">   100</i>
  <i type="int" name="IBRION">     2</i>
  <i name="EDIFF">      0.00001000</i>
  <i type="int" name="NSW">    99</i>
  <i type="int" name="ISIF">     3</i>
  <i name="ENCUT">    520.00000000</i>
  <v name="MAGMOM">      0.00000000      0.00000000      0.00000000      0.00000000      0.00000000      0.00000000      0.00000000      0.00000000</v>
  <i type="string" name="LREAL"> Auto</i>
  <i type="logical" name="LPLANE"> T  </i>
  <i type="int" name="ISMEAR">    -5</i>
  <i name="SIGMA">      0.05000000</i>
  <i type="logical" name="LWAVE"> F  </i>
  <i type="logical" name="LCHARG"> F  </i>
  <i type="int" name="LORBIT">    11</i>
  <i type="logical" name="LASPH"> T  </i>
  <v type="int" name="KPOINT_BSE">    -1     0     0     0</v>
  <i type="int" name="NELM">   100</i>
  <i type="logical" name="LASPH"> T  </i>
 </incar>
 <structure name="primitive_cell" >
  <crystal>
   <varray name="basis" >
    <v>       1.59018100      -2.75427400       0.00000000 </v>
    <v>       1.59018100       2.75427400       0.00000000 </v>
    <v>       0.00000000       0.00000000       7.70352200 </v>
   </varray>
   <i name="volume">     67.47968170 </i>
   <varray name="rec_basis" >
    <v>       0.31442962      -0.18153604       0.00000000 </v>
    <v>       0.31442962       0.18153604       0.00000000 </v>
    <v>       0.00000000       0.00000000       0.12981075 </v>
   </varray>
  </crystal>
  <varray name="positions" >
   <v>       0.00000000       0.00000000       0.00000000 </v>
   <v>      -0.33333300       0.33333300       0.14931000 </v>
   <v>       0.33333300      -0.33333300      -0.14931000 </v>
   <v>       0.33333300      -0.33333300       0.25000000 </v>
   <v>      -0.33333300       0.33333300      -0.25000000 </v>
   <v>       0.33333300      -0.33333300      -0.35069000 </v>
   <v>      -0.33333300       0.33333300       0.35069000 </v>
   <v>       0.00000000       0.00000000      -0.50000000 </v>
  </varray>
 </structure>
 <varray name="primitive_index" >
  <v type="int" >        1 </v>
  <v type="int" >        6 </v>
  <v type="int" >        8 </v>
  <v type="int" >        3 </v>
  <v type="int" >        4 </v>
  <v type="int" >        5 </v>
  <v type="int" >        7 </v>
  <v type="int" >        2 </v>
 </varray>
 <kpoints>
  <generation param="Auto">
   <i name="subdivisionlength">     32.00000000 </i>
   <v type="int" name="divisions">      12       12        4 </v>
   <v name="usershift">      0.00000000       0.00000000       0.00000000 </v>
   <v name="genvec1">      0.08333333       0.00000000       0.00000000 </v>
   <v name="genvec2">      0.00000000       0.08333333       0.00000000 </v>
   <v name="genvec3">      0.00000000       0.00000000       0.25000000 </v>
   <v name="shift">      0.00000000       0.00000000       0.00000000 </v>
  </generation>
  <varray name="kpointlist" >
   <v>       0.00000000       0.00000000       0.00000000 </v>
   <v>       0.08333333       0.00000000       0.00000000 </v>
   <v>       0.16666667       0.00000000       0.00000000 </v>
   <v>       0.25000000      -0.00000000       0.00000000 </v>
   <v>       0.33333333       0.00000000       0.00000000 </v>
   <v>       0.41666667       0.00000000       0.00000000 </v>
   <v>       0.50000000      -0.00000000       0.00000000 </v>
   <v>       0.08333333       0.08333333       0.00000000 </v>
   <v>       0.16666667       0.08333333       0.00000000 </v>
   <v>       0.25000000       0.08333333       0.00000000 </v>
   <v>       0.33333333       0.08333333       0.00000000 </v>
   <v>       0.41666667       0.08333333       0.00000000 </v>
   <v>       0.16666667       0.16666667       0.00000000 </v>
   <v>       0.25000000       0.16666667       0.00000000 </v>
   <v>       0.33333333       0.16666667       0.00000000 </v>
   <v>       0.41666667       0.16666667       0.00000000 </v>
   <v>       0.25000000       0.25000000       0.00000000 </v>
   <v>       0.33333333       0.25000000       0.00000000 </v>
   <v>       0.33333333       0.33333333       0.00000000 </v>
   <v>       0.00000000       0.00000000       0.25000000 </v>
   <v>       0.08333333       0.00000000       0.25000000 </v>
   <v>       0.16666667       0.00000000       0.25000000 </v>
   <v>       0.25000000      -0.00000000       0.25000000 </v>
   <v>       0.33333333       0.00000000       0.25000000 </v>
   <v>       0.41666667       0.00000000       0.25000000 </v>
   <v>       0.50000000      -0.00000000       0.25000000 </v>
   <v>       0.08333333       0.08333333       0.25000000 </v>
   <v>       0.16666667       0.08333333       0.25000000 </v>
   <v>       0.25000000       0.08333333       0.25000000 </v>
   <v>       0.33333333       0.08333333       0.25000000 </v>
   <v>       0.41666667       0.08333333       0.25000000 </v>
   <v>       0.16666667       0.16666667       0.25000000 </v>
   <v>       0.25000000       0.16666667       0.25000000 </v>
   <v>       0.33333333       0.16666667       0.25000000 </v>
   <v>       0.41666667       0.16666667       0.25000000 </v>
   <v>       0.25000000       0.25000000       0.25000000 </v>
   <v>       0.33333333       0.25000000       0.25000000 </v>
   <v>       0.33333333       0.33333333       0.25000000 </v>
   <v>       0.00000000       0.00000000       0.50000000 </v>
   <v>       0.08333333       0.00000000       0.50000000 </v>
   <v>       0.16666667       0.00000000       0.50000000 </v>
   <v>       0.25000000      -0.00000000       0.50000000 </v>
   <v>       0.33333333       0.00000000       0.50000000 </v>
   <v>       0.41666667       0.00000000       0.50000000 </v>
   <v>       0.50000000      -0.00000000       0.50000000 </v>
   <v>       0.08333333       0.08333333       0.50000000 </v>
   <v>       0.16666667       0.08333333       0.50000000 </v>
   <v>       0.25000000       0.08333333       0.50000000 </v>
   <v>       0.33333333       0.08333333       0.50000000 </v>
   <v>       0.41666667       0.08333333       0.50000000 </v>
   <v>       0.16666667       0.16666667       0.50000000 </v>
   <v>       0.25000000       0.16666667       0.50000000 </v>
   <v>       0.33333333       0.16666667       0.50000000 </v>
   <v>       0.41666667       0.16666667       0.50000000 </v>
   <v>       0.25000000       0.25000000       0.50000000 </v>
   <v>       0.33333333       0.25000000       0.50000000 </v>
   <v>       0.33333333       0.33333333       0.50000000 </v>
  </varray>
  <varray name="weights" >
   <v>       0.00173611 </v>
   <v>       0.01041667 </v>
   <v>       0.01041667 </v>
   <v>       0.01041667 </v>
   <v>       0.01041667 </v>
   <v>       0.01041667 </v>
   <v>       0.00520833 </v>
   <v>       0.01041667 </v>
   <v>       0.02083333 </v>
   <v>       0.02083333 </v>
   <v>       0.02083333 </v>
   <v>       0.02083333 </v>
   <v>       0.01041667 </v>
   <v>       0.02083333 </v>
   <v>       0.02083333 </v>
   <v>       0.01041667 </v>
   <v>       0.01041667 </v>
   <v>       0.02083333 </v>
   <v>       0.00347222 </v>
   <v>       0.00347222 </v>
   <v>       0.02083333 </v>
   <v>       0.02083333 </v>
   <v>       0.02083333 </v>
   <v>       0.02083333 </v>
   <v>       0.02083333 </v>
   <v>       0.01041667 </v>
   <v>       0.02083333 </v>
   <v>       0.04166667 </v>
   <v>       0.04166667 </v>
   <v>       0.04166667 </v>
   <v>       0.04166667 </v>
   <v>       0.02083333 </v>
   <v>       0.04166667 </v>
   <v>       0.04166667 </v>
   <v>       0.02083333 </v>
   <v>       0.02083333 </v>
   <v>       0.04166667 </v>
   <v>       0.00694444 </v>
   <v>       0.00173611 </v>
   <v>       0.01041667 </v>
   <v>       0.01041667 </v>
   <v>       0.01041667 </v>
   <v>       0.01041667 </v>
   <v>       0.01041667 </v>
   <v>       0.00520833 </v>
   <v>       0.01041667 </v>
   <v>       0.02083333 </v>
   <v>       0.02083333 </v>
   <v>       0.02083333 </v>
   <v>       0.02083333 </v>
   <v>       0.01041667 </v>
   <v>       0.02083333 </v>
   <v>       0.02083333 </v>
   <v>       0.01041667 </v>
   <v>       0.01041667 </v>
   <v>       0.02083333 </v>
   <v>       0.00347222 </v>
  </varray>
  <varray name="tetrahedronlist"  type="int" >
   <v type="int" >        8        1        2        2       21 </v>
   <v type="int" >        8        2        2        8       21 </v>
   <v type="int" >        4        2        8       21       27 </v>
   <v type="int" >        4        1        2       20       21 </v>
   <v type="int" >        8        2       20       21       21 </v>
   <v type="int" >        8        2       21       21       27 </v>
   <v type="int" >        8        2        3        8       22 </v>
   <v type="int" >        8        3        8        9       22 </v>
   <v type="int" >        4        8        9       22       28 </v>
   <v type="int" >        4        2        8       21       22 </v>
   <v type="int" >        8        8       21       22       27 </v>
   <v type="int" >        8        8       22       27       28 </v>
   <v type="int" >        8        3        4        9       23 </v>
   <v type="int" >        8        4        9       10       23 </v>
   <v type="int" >        4        9       10       23       29 </v>
   <v type="int" >        4        3        9       22       23 </v>
   <v type="int" >        8        9       22       23       28 </v>
   <v type="int" >        8        9       23       28       29 </v>
   <v type="int" >        8        4        5       10       24 </v>
   <v type="int" >        8        5       10       11       24 </v>
   <v type="int" >        4       10       11       24       30 </v>
   <v type="int" >        4        4       10       23       24 </v>
   <v type="int" >        8       10       23       24       29 </v>
   <v type="int" >        8       10       24       29       30 </v>
   <v type="int" >        8        5        6       11       25 </v>
   <v type="int" >        8        6       11       12       25 </v>
   <v type="int" >        4       11       12       25       31 </v>
   <v type="int" >        4        5       11       24       25 </v>
   <v type="int" >        8       11       24       25       30 </v>
   <v type="int" >        8       11       25       30       31 </v>
   <v type="int" >        8        6        7       12       26 </v>
   <v type="int" >        4        7       12       12       26 </v>
   <v type="int" >        4       12       12       26       31 </v>
   <v type="int" >        4        6       12       25       26 </v>
   <v type="int" >        8       12       25       26       31 </v>
   <v type="int" >        8       12       26       31       31 </v>
   <v type="int" >        8        6        7       12       25 </v>
   <v type="int" >        4       11       12       25       30 </v>
   <v type="int" >        4        7       12       25       26 </v>
   <v type="int" >        8       12       25       30       31 </v>
   <v type="int" >        8        5        6       11       24 </v>
   <v type="int" >        4       10       11       24       29 </v>
   <v type="int" >        4        6       11       24       25 </v>
   <v type="int" >        8       11       24       29       30 </v>
   <v type="int" >        8        4        5       10       23 </v>
   <v type="int" >        4        9       10       23       28 </v>
   <v type="int" >        4        5       10       23       24 </v>
   <v type="int" >        8       10       23       28       29 </v>
   <v type="int" >        8        3        4        9       22 </v>
   <v type="int" >        4        8        9       22       27 </v>
   <v type="int" >        4        4        9       22       23 </v>
   <v type="int" >        8        9       22       27       28 </v>
   <v type="int" >        8        2        3        8       21 </v>
   <v type="int" >        4        2        8       21       21 </v>
   <v type="int" >        4        3        8       21       22 </v>
   <v type="int" >        4        8       21       21       27 </v>
   <v type="int" >        4        1        2        2       20 </v>
   <v type="int" >        4        2        2       20       21 </v>
   <v type="int" >        8        2        3        8       27 </v>
   <v type="int" >        8        3        8        9       27 </v>
   <v type="int" >        4        3        9       27       28 </v>
   <v type="int" >        4        2        3       21       27 </v>
   <v type="int" >        8        3       21       22       27 </v>
   <v type="int" >        8        3       22       27       28 </v>
   <v type="int" >        8        8        9        9       28 </v>
   <v type="int" >        8        9        9       13       28 </v>
   <v type="int" >        4        9       13       28       32 </v>
   <v type="int" >        4        8        9       27       28 </v>
   <v type="int" >        8        9       27       28       28 </v>
   <v type="int" >        8        9       28       28       32 </v>
   <v type="int" >        8        9       10       13       29 </v>
   <v type="int" >        8       10       13       14       29 </v>
   <v type="int" >        4       13       14       29       33 </v>
   <v type="int" >        4        9       13       28       29 </v>
   <v type="int" >        8       13       28       29       32 </v>
   <v type="int" >        8       13       29       32       33 </v>
   <v type="int" >        8       10       11       14       30 </v>
   <v type="int" >        8       11       14       15       30 </v>
   <v type="int" >        4       14       15       30       34 </v>
   <v type="int" >        4       10       14       29       30 </v>
   <v type="int" >        8       14       29       30       33 </v>
   <v type="int" >        8       14       30       33       34 </v>
   <v type="int" >        8       11       12       15       31 </v>
   <v type="int" >        8       12       15       16       31 </v>
   <v type="int" >        4       15       16       31       35 </v>
   <v type="int" >        4       11       15       30       31 </v>
   <v type="int" >        8       15       30       31       34 </v>
   <v type="int" >        8       15       31       34       35 </v>
   <v type="int" >        8       12       12       16       31 </v>
   <v type="int" >        4       15       16       31       34 </v>
   <v type="int" >        4       12       16       31       31 </v>
   <v type="int" >        4       16       31       31       35 </v>
   <v type="int" >        8       16       31       34       35 </v>
   <v type="int" >        8       11       12       15       30 </v>
   <v type="int" >        4       14       15       30       33 </v>
   <v type="int" >        4       12       15       30       31 </v>
   <v type="int" >        8       15       30       33       34 </v>
   <v type="int" >        8       10       11       14       29 </v>
   <v type="int" >        4       13       14       29       32 </v>
   <v type="int" >        4       11       14       29       30 </v>
   <v type="int" >        8       14       29       32       33 </v>
   <v type="int" >        8        9       10       13       28 </v>
   <v type="int" >        4        9       13       28       28 </v>
   <v type="int" >        4       10       13       28       29 </v>
   <v type="int" >        4       13       28       28       32 </v>
   <v type="int" >        4        8        9        9       27 </v>
   <v type="int" >        4        3        9       22       27 </v>
   <v type="int" >        4        9        9       27       28 </v>
   <v type="int" >        4        3        8       21       27 </v>
   <v type="int" >        8        3        4        9       28 </v>
   <v type="int" >        8        4        9       10       28 </v>
   <v type="int" >        4        4       10       28       29 </v>
   <v type="int" >        4        3        4       22       28 </v>
   <v type="int" >        8        4       22       23       28 </v>
   <v type="int" >        8        4       23       28       29 </v>
   <v type="int" >        8        9       10       13       32 </v>
   <v type="int" >        8       10       13       14       32 </v>
   <v type="int" >        4       10       14       32       33 </v>
   <v type="int" >        4        9       10       28       32 </v>
   <v type="int" >        8       10       28       29       32 </v>
   <v type="int" >        8       10       29       32       33 </v>
   <v type="int" >        8       13       14       14       33 </v>
   <v type="int" >        8       14       14       17       33 </v>
   <v type="int" >        4       14       17       33       36 </v>
   <v type="int" >        4       13       14       32       33 </v>
   <v type="int" >        8       14       32       33       33 </v>
   <v type="int" >        8       14       33       33       36 </v>
   <v type="int" >        8       14       15       17       34 </v>
   <v type="int" >        8       15       17       18       34 </v>
   <v type="int" >        4       17       18       34       37 </v>
   <v type="int" >        4       14       17       33       34 </v>
   <v type="int" >        8       17       33       34       36 </v>
   <v type="int" >        8       17       34       36       37 </v>
   <v type="int" >        8       15       16       18       35 </v>
   <v type="int" >        4       16       18       18       35 </v>
   <v type="int" >        4       18       18       35       37 </v>
   <v type="int" >        4       15       18       34       35 </v>
   <v type="int" >        8       18       34       35       37 </v>
   <v type="int" >        8       18       35       37       37 </v>
   <v type="int" >        8       15       16       18       34 </v>
   <v type="int" >        4       17       18       34       36 </v>
   <v type="int" >        4       16       18       34       35 </v>
   <v type="int" >        8       18       34       36       37 </v>
   <v type="int" >        8       14       15       17       33 </v>
   <v type="int" >        4       14       17       33       33 </v>
   <v type="int" >        4       15       17       33       34 </v>
   <v type="int" >        4       17       33       33       36 </v>
   <v type="int" >        4       13       14       14       32 </v>
   <v type="int" >        4       10       14       29       32 </v>
   <v type="int" >        4       14       14       32       33 </v>
   <v type="int" >        4        4       10       23       28 </v>
   <v type="int" >        4       10       13       28       32 </v>
   <v type="int" >        4        4        9       22       28 </v>
   <v type="int" >        8        4        5       10       29 </v>
   <v type="int" >        8        5       10       11       29 </v>
   <v type="int" >        4        5       11       29       30 </v>
   <v type="int" >        4        4        5       23       29 </v>
   <v type="int" >        8        5       23       24       29 </v>
   <v type="int" >        8        5       24       29       30 </v>
   <v type="int" >        8       10       11       14       33 </v>
   <v type="int" >        8       11       14       15       33 </v>
   <v type="int" >        4       11       15       33       34 </v>
   <v type="int" >        4       10       11       29       33 </v>
   <v type="int" >        8       11       29       30       33 </v>
   <v type="int" >        8       11       30       33       34 </v>
   <v type="int" >        8       14       15       17       36 </v>
   <v type="int" >        8       15       17       18       36 </v>
   <v type="int" >        4       15       18       36       37 </v>
   <v type="int" >        4       14       15       33       36 </v>
   <v type="int" >        8       15       33       34       36 </v>
   <v type="int" >        8       15       34       36       37 </v>
   <v type="int" >        8       17       18       18       37 </v>
   <v type="int" >       16       18       18       19       37 </v>
   <v type="int" >        8       18       19       37       38 </v>
   <v type="int" >        4       17       18       36       37 </v>
   <v type="int" >        8       18       36       37       37 </v>
   <v type="int" >       16       18       37       37       38 </v>
   <v type="int" >        8       18       19       37       37 </v>
   <v type="int" >        8       19       37       37       38 </v>
   <v type="int" >        4       17       18       18       36 </v>
   <v type="int" >        4       15       18       34       36 </v>
   <v type="int" >        4       18       18       36       37 </v>
   <v type="int" >        4       11       15       30       33 </v>
   <v type="int" >        4       15       17       33       36 </v>
   <v type="int" >        4        5       11       24       29 </v>
   <v type="int" >        4       11       14       29       33 </v>
   <v type="int" >        4        5       10       23       29 </v>
   <v type="int" >        8        5        6       11       30 </v>
   <v type="int" >        8        6       11       12       30 </v>
   <v type="int" >        4        6       12       30       31 </v>
   <v type="int" >        4        5        6       24       30 </v>
   <v type="int" >        8        6       24       25       30 </v>
   <v type="int" >        8        6       25       30       31 </v>
   <v type="int" >        8       11       12       15       34 </v>
   <v type="int" >        8       12       15       16       34 </v>
   <v type="int" >        4       12       16       34       35 </v>
   <v type="int" >        4       11       12       30       34 </v>
   <v type="int" >        8       12       30       31       34 </v>
   <v type="int" >        8       12       31       34       35 </v>
   <v type="int" >        8       15       16       18       37 </v>
   <v type="int" >        8       16       18       18       37 </v>
   <v type="int" >        4       16       18       37       37 </v>
   <v type="int" >        4       15       16       34       37 </v>
   <v type="int" >        8       16       34       35       37 </v>
   <v type="int" >        4       16       35       37       37 </v>
   <v type="int" >        8       18       18       19       38 </v>
   <v type="int" >        8       18       18       37       38 </v>
   <v type="int" >        4       16       18       35       37 </v>
   <v type="int" >        4       12       16       31       34 </v>
   <v type="int" >        4       16       18       34       37 </v>
   <v type="int" >        4        6       12       25       30 </v>
   <v type="int" >        4       12       15       30       34 </v>
   <v type="int" >        4        6       11       24       30 </v>
   <v type="int" >        8        6        7       12       31 </v>
   <v type="int" >        8        7       12       12       31 </v>
   <v type="int" >        4        7       12       31       31 </v>
   <v type="int" >        4        6        7       25       31 </v>
   <v type="int" >        8        7       25       26       31 </v>
   <v type="int" >        4        7       26       31       31 </v>
   <v type="int" >        4       12       12       16       35 </v>
   <v type="int" >        8       12       15       16       35 </v>
   <v type="int" >        4       12       15       34       35 </v>
   <v type="int" >        4       12       12       31       35 </v>
   <v type="int" >        8       12       31       31       35 </v>
   <v type="int" >        8       15       17       18       37 </v>
   <v type="int" >        4       15       17       36       37 </v>
   <v type="int" >        4       15       16       35       37 </v>
   <v type="int" >        8       15       34       35       37 </v>
   <v type="int" >        4       15       17       34       37 </v>
   <v type="int" >        4       17       18       37       37 </v>
   <v type="int" >        4       17       36       37       37 </v>
   <v type="int" >        4       12       15       31       35 </v>
   <v type="int" >        4       15       18       35       37 </v>
   <v type="int" >        4        7       12       26       31 </v>
   <v type="int" >        4       12       16       31       35 </v>
   <v type="int" >        4        7       12       25       31 </v>
   <v type="int" >        8        6       11       12       31 </v>
   <v type="int" >        4        6       11       30       31 </v>
   <v type="int" >        4        6        7       26       31 </v>
   <v type="int" >        8        6       25       26       31 </v>
   <v type="int" >        8       11       14       15       34 </v>
   <v type="int" >        4       11       14       33       34 </v>
   <v type="int" >        4       11       12       31       34 </v>
   <v type="int" >        8       11       30       31       34 </v>
   <v type="int" >        4       14       14       17       36 </v>
   <v type="int" >        4       14       14       33       36 </v>
   <v type="int" >        4       14       15       34       36 </v>
   <v type="int" >        8       14       33       34       36 </v>
   <v type="int" >        4       11       14       30       34 </v>
   <v type="int" >        4       14       17       34       36 </v>
   <v type="int" >        4        6       11       25       31 </v>
   <v type="int" >        4       11       15       31       34 </v>
   <v type="int" >        4        6       12       26       31 </v>
   <v type="int" >        8        5       10       11       30 </v>
   <v type="int" >        4        5       10       29       30 </v>
   <v type="int" >        4        5        6       25       30 </v>
   <v type="int" >        8        5       24       25       30 </v>
   <v type="int" >        8       10       13       14       33 </v>
   <v type="int" >        4       10       13       32       33 </v>
   <v type="int" >        4       10       11       30       33 </v>
   <v type="int" >        8       10       29       30       33 </v>
   <v type="int" >        4       10       13       29       33 </v>
   <v type="int" >        4       13       14       33       33 </v>
   <v type="int" >        4       13       32       33       33 </v>
   <v type="int" >        4        5       10       24       30 </v>
   <v type="int" >        4       10       14       30       33 </v>
   <v type="int" >        4        5       11       25       30 </v>
   <v type="int" >        8        4        9       10       29 </v>
   <v type="int" >        4        4        9       28       29 </v>
   <v type="int" >        4        4        5       24       29 </v>
   <v type="int" >        8        4       23       24       29 </v>
   <v type="int" >        4        9        9       13       32 </v>
   <v type="int" >        4        9        9       28       32 </v>
   <v type="int" >        4        9       10       29       32 </v>
   <v type="int" >        8        9       28       29       32 </v>
   <v type="int" >        4        4        9       23       29 </v>
   <v type="int" >        4        9       13       29       32 </v>
   <v type="int" >        4        4       10       24       29 </v>
   <v type="int" >        8        3        8        9       28 </v>
   <v type="int" >        4        3        8       27       28 </v>
   <v type="int" >        4        3        4       23       28 </v>
   <v type="int" >        8        3       22       23       28 </v>
   <v type="int" >        4        3        8       22       28 </v>
   <v type="int" >        4        8        9       28       28 </v>
   <v type="int" >        4        8       27       28       28 </v>
   <v type="int" >        4        3        9       23       28 </v>
   <v type="int" >        4        2        2        8       27 </v>
   <v type="int" >        4        2        2       21       27 </v>
   <v type="int" >        4        2        3       22       27 </v>
   <v type="int" >        8        2       21       22       27 </v>
   <v type="int" >        4        2        8       22       27 </v>
   <v type="int" >        4        1        2       21       21 </v>
   <v type="int" >        4        1       20       21       21 </v>
   <v type="int" >        8       20       21       21       40 </v>
   <v type="int" >        8       21       21       27       40 </v>
   <v type="int" >        4       21       27       40       46 </v>
   <v type="int" >        4       20       21       39       40 </v>
   <v type="int" >        8       21       39       40       40 </v>
   <v type="int" >        8       21       40       40       46 </v>
   <v type="int" >        8       21       22       27       41 </v>
   <v type="int" >        8       22       27       28       41 </v>
   <v type="int" >        4       27       28       41       47 </v>
   <v type="int" >        4       21       27       40       41 </v>
   <v type="int" >        8       27       40       41       46 </v>
   <v type="int" >        8       27       41       46       47 </v>
   <v type="int" >        8       22       23       28       42 </v>
   <v type="int" >        8       23       28       29       42 </v>
   <v type="int" >        4       28       29       42       48 </v>
   <v type="int" >        4       22       28       41       42 </v>
   <v type="int" >        8       28       41       42       47 </v>
   <v type="int" >        8       28       42       47       48 </v>
   <v type="int" >        8       23       24       29       43 </v>
   <v type="int" >        8       24       29       30       43 </v>
   <v type="int" >        4       29       30       43       49 </v>
   <v type="int" >        4       23       29       42       43 </v>
   <v type="int" >        8       29       42       43       48 </v>
   <v type="int" >        8       29       43       48       49 </v>
   <v type="int" >        8       24       25       30       44 </v>
   <v type="int" >        8       25       30       31       44 </v>
   <v type="int" >        4       30       31       44       50 </v>
   <v type="int" >        4       24       30       43       44 </v>
   <v type="int" >        8       30       43       44       49 </v>
   <v type="int" >        8       30       44       49       50 </v>
   <v type="int" >        8       25       26       31       45 </v>
   <v type="int" >        4       26       31       31       45 </v>
   <v type="int" >        4       31       31       45       50 </v>
   <v type="int" >        4       25       31       44       45 </v>
   <v type="int" >        8       31       44       45       50 </v>
   <v type="int" >        8       31       45       50       50 </v>
   <v type="int" >        8       25       26       31       44 </v>
   <v type="int" >        4       30       31       44       49 </v>
   <v type="int" >        4       26       31       44       45 </v>
   <v type="int" >        8       31       44       49       50 </v>
   <v type="int" >        8       24       25       30       43 </v>
   <v type="int" >        4       29       30       43       48 </v>
   <v type="int" >        4       25       30       43       44 </v>
   <v type="int" >        8       30       43       48       49 </v>
   <v type="int" >        8       23       24       29       42 </v>
   <v type="int" >        4       28       29       42       47 </v>
   <v type="int" >        4       24       29       42       43 </v>
   <v type="int" >        8       29       42       47       48 </v>
   <v type="int" >        8       22       23       28       41 </v>
   <v type="int" >        4       27       28       41       46 </v>
   <v type="int" >        4       23       28       41       42 </v>
   <v type="int" >        8       28       41       46       47 </v>
   <v type="int" >        8       21       22       27       40 </v>
   <v type="int" >        4       21       27       40       40 </v>
   <v type="int" >        4       22       27       40       41 </v>
   <v type="int" >        4       27       40       40       46 </v>
   <v type="int" >        4       20       21       21       39 </v>
   <v type="int" >        4       21       21       39       40 </v>
   <v type="int" >        8       21       22       27       46 </v>
   <v type="int" >        8       22       27       28       46 </v>
   <v type="int" >        4       22       28       46       47 </v>
   <v type="int" >        4       21       22       40       46 </v>
   <v type="int" >        8       22       40       41       46 </v>
   <v type="int" >        8       22       41       46       47 </v>
   <v type="int" >        8       27       28       28       47 </v>
   <v type="int" >        8       28       28       32       47 </v>
   <v type="int" >        4       28       32       47       51 </v>
   <v type="int" >        4       27       28       46       47 </v>
   <v type="int" >        8       28       46       47       47 </v>
   <v type="int" >        8       28       47       47       51 </v>
   <v type="int" >        8       28       29       32       48 </v>
   <v type="int" >        8       29       32       33       48 </v>
   <v type="int" >        4       32       33       48       52 </v>
   <v type="int" >        4       28       32       47       48 </v>
   <v type="int" >        8       32       47       48       51 </v>
   <v type="int" >        8       32       48       51       52 </v>
   <v type="int" >        8       29       30       33       49 </v>
   <v type="int" >        8       30       33       34       49 </v>
   <v type="int" >        4       33       34       49       53 </v>
   <v type="int" >        4       29       33       48       49 </v>
   <v type="int" >        8       33       48       49       52 </v>
   <v type="int" >        8       33       49       52       53 </v>
   <v type="int" >        8       30       31       34       50 </v>
   <v type="int" >        8       31       34       35       50 </v>
   <v type="int" >        4       34       35       50       54 </v>
   <v type="int" >        4       30       34       49       50 </v>
   <v type="int" >        8       34       49       50       53 </v>
   <v type="int" >        8       34       50       53       54 </v>
   <v type="int" >        8       31       31       35       50 </v>
   <v type="int" >        4       34       35       50       53 </v>
   <v type="int" >        4       31       35       50       50 </v>
   <v type="int" >        4       35       50       50       54 </v>
   <v type="int" >        8       35       50       53       54 </v>
   <v type="int" >        8       30       31       34       49 </v>
   <v type="int" >        4       33       34       49       52 </v>
   <v type="int" >        4       31       34       49       50 </v>
   <v type="int" >        8       34       49       52       53 </v>
   <v type="int" >        8       29       30       33       48 </v>
   <v type="int" >        4       32       33       48       51 </v>
   <v type="int" >        4       30       33       48       49 </v>
   <v type="int" >        8       33       48       51       52 </v>
   <v type="int" >        8       28       29       32       47 </v>
   <v type="int" >        4       28       32       47       47 </v>
   <v type="int" >        4       29       32       47       48 </v>
   <v type="int" >        4       32       47       47       51 </v>
   <v type="int" >        4       27       28       28       46 </v>
   <v type="int" >        4       22       28       41       46 </v>
   <v type="int" >        4       28       28       46       47 </v>
   <v type="int" >        4       22       27       40       46 </v>
   <v type="int" >        8       22       23       28       47 </v>
   <v type="int" >        8       23       28       29       47 </v>
   <v type="int" >        4       23       29       47       48 </v>
   <v type="int" >        4       22       23       41       47 </v>
   <v type="int" >        8       23       41       42       47 </v>
   <v type="int" >        8       23       42       47       48 </v>
   <v type="int" >        8       28       29       32       51 </v>
   <v type="int" >        8       29       32       33       51 </v>
   <v type="int" >        4       29       33       51       52 </v>
   <v type="int" >        4       28       29       47       51 </v>
   <v type="int" >        8       29       47       48       51 </v>
   <v type="int" >        8       29       48       51       52 </v>
   <v type="int" >        8       32       33       33       52 </v>
   <v type="int" >        8       33       33       36       52 </v>
   <v type="int" >        4       33       36       52       55 </v>
   <v type="int" >        4       32       33       51       52 </v>
   <v type="int" >        8       33       51       52       52 </v>
   <v type="int" >        8       33       52       52       55 </v>
   <v type="int" >        8       33       34       36       53 </v>
   <v type="int" >        8       34       36       37       53 </v>
   <v type="int" >        4       36       37       53       56 </v>
   <v type="int" >        4       33       36       52       53 </v>
   <v type="int" >        8       36       52       53       55 </v>
   <v type="int" >        8       36       53       55       56 </v>
   <v type="int" >        8       34       35       37       54 </v>
   <v type="int" >        4       35       37       37       54 </v>
   <v type="int" >        4       37       37       54       56 </v>
   <v type="int" >        4       34       37       53       54 </v>
   <v type="int" >        8       37       53       54       56 </v>
   <v type="int" >        8       37       54       56       56 </v>
   <v type="int" >        8       34       35       37       53 </v>
   <v type="int" >        4       36       37       53       55 </v>
   <v type="int" >        4       35       37       53       54 </v>
   <v type="int" >        8       37       53       55       56 </v>
   <v type="int" >        8       33       34       36       52 </v>
   <v type="int" >        4       33       36       52       52 </v>
   <v type="int" >        4       34       36       52       53 </v>
   <v type="int" >        4       36       52       52       55 </v>
   <v type="int" >        4       32       33       33       51 </v>
   <v type="int" >        4       29       33       48       51 </v>
   <v type="int" >        4       33       33       51       52 </v>
   <v type="int" >        4       23       29       42       47 </v>
   <v type="int" >        4       29       32       47       51 </v>
   <v type="int" >        4       23       28       41       47 </v>
   <v type="int" >        8       23       24       29       48 </v>
   <v type="int" >        8       24       29       30       48 </v>
   <v type="int" >        4       24       30       48       49 </v>
   <v type="int" >        4       23       24       42       48 </v>
   <v type="int" >        8       24       42       43       48 </v>
   <v type="int" >        8       24       43       48       49 </v>
   <v type="int" >        8       29       30       33       52 </v>
   <v type="int" >        8       30       33       34       52 </v>
   <v type="int" >        4       30       34       52       53 </v>
   <v type="int" >        4       29       30       48       52 </v>
   <v type="int" >        8       30       48       49       52 </v>
   <v type="int" >        8       30       49       52       53 </v>
   <v type="int" >        8       33       34       36       55 </v>
   <v type="int" >        8       34       36       37       55 </v>
   <v type="int" >        4       34       37       55       56 </v>
   <v type="int" >        4       33       34       52       55 </v>
   <v type="int" >        8       34       52       53       55 </v>
   <v type="int" >        8       34       53       55       56 </v>
   <v type="int" >        8       36       37       37       56 </v>
   <v type="int" >       16       37       37       38       56 </v>
   <v type="int" >        8       37       38       56       57 </v>
   <v type="int" >        4       36       37       55       56 </v>
   <v type="int" >        8       37       55       56       56 </v>
   <v type="int" >       16       37       56       56       57 </v>
   <v type="int" >        8       37       38       56       56 </v>
   <v type="int" >        8       38       56       56       57 </v>
   <v type="int" >        4       36       37       37       55 </v>
   <v type="int" >        4       34       37       53       55 </v>
   <v type="int" >        4       37       37       55       56 </v>
   <v type="int" >        4       30       34       49       52 </v>
   <v type="int" >        4       34       36       52       55 </v>
   <v type="int" >        4       24       30       43       48 </v>
   <v type="int" >        4       30       33       48       52 </v>
   <v type="int" >        4       24       29       42       48 </v>
   <v type="int" >        8       24       25       30       49 </v>
   <v type="int" >        8       25       30       31       49 </v>
   <v type="int" >        4       25       31       49       50 </v>
   <v type="int" >        4       24       25       43       49 </v>
   <v type="int" >        8       25       43       44       49 </v>
   <v type="int" >        8       25       44       49       50 </v>
   <v type="int" >        8       30       31       34       53 </v>
   <v type="int" >        8       31       34       35       53 </v>
   <v type="int" >        4       31       35       53       54 </v>
   <v type="int" >        4       30       31       49       53 </v>
   <v type="int" >        8       31       49       50       53 </v>
   <v type="int" >        8       31       50       53       54 </v>
   <v type="int" >        8       34       35       37       56 </v>
   <v type="int" >        8       35       37       37       56 </v>
   <v type="int" >        4       35       37       56       56 </v>
   <v type="int" >        4       34       35       53       56 </v>
   <v type="int" >        8       35       53       54       56 </v>
   <v type="int" >        4       35       54       56       56 </v>
   <v type="int" >        8       37       37       38       57 </v>
   <v type="int" >        8       37       37       56       57 </v>
   <v type="int" >        4       35       37       54       56 </v>
   <v type="int" >        4       31       35       50       53 </v>
   <v type="int" >        4       35       37       53       56 </v>
   <v type="int" >        4       25       31       44       49 </v>
   <v type="int" >        4       31       34       49       53 </v>
   <v type="int" >        4       25       30       43       49 </v>
   <v type="int" >        8       25       26       31       50 </v>
   <v type="int" >        8       26       31       31       50 </v>
   <v type="int" >        4       26       31       50       50 </v>
   <v type="int" >        4       25       26       44       50 </v>
   <v type="int" >        8       26       44       45       50 </v>
   <v type="int" >        4       26       45       50       50 </v>
   <v type="int" >        4       31       31       35       54 </v>
   <v type="int" >        8       31       34       35       54 </v>
   <v type="int" >        4       31       34       53       54 </v>
   <v type="int" >        4       31       31       50       54 </v>
   <v type="int" >        8       31       50       50       54 </v>
   <v type="int" >        8       34       36       37       56 </v>
   <v type="int" >        4       34       36       55       56 </v>
   <v type="int" >        4       34       35       54       56 </v>
   <v type="int" >        8       34       53       54       56 </v>
   <v type="int" >        4       34       36       53       56 </v>
   <v type="int" >        4       36       37       56       56 </v>
   <v type="int" >        4       36       55       56       56 </v>
   <v type="int" >        4       31       34       50       54 </v>
   <v type="int" >        4       34       37       54       56 </v>
   <v type="int" >        4       26       31       45       50 </v>
   <v type="int" >        4       31       35       50       54 </v>
   <v type="int" >        4       26       31       44       50 </v>
   <v type="int" >        8       25       30       31       50 </v>
   <v type="int" >        4       25       30       49       50 </v>
   <v type="int" >        4       25       26       45       50 </v>
   <v type="int" >        8       25       44       45       50 </v>
   <v type="int" >        8       30       33       34       53 </v>
   <v type="int" >        4       30       33       52       53 </v>
   <v type="int" >        4       30       31       50       53 </v>
   <v type="int" >        8       30       49       50       53 </v>
   <v type="int" >        4       33       33       36       55 </v>
   <v type="int" >        4       33       33       52       55 </v>
   <v type="int" >        4       33       34       53       55 </v>
   <v type="int" >        8       33       52       53       55 </v>
   <v type="int" >        4       30       33       49       53 </v>
   <v type="int" >        4       33       36       53       55 </v>
   <v type="int" >        4       25       30       44       50 </v>
   <v type="int" >        4       30       34       50       53 </v>
   <v type="int" >        4       25       31       45       50 </v>
   <v type="int" >        8       24       29       30       49 </v>
   <v type="int" >        4       24       29       48       49 </v>
   <v type="int" >        4       24       25       44       49 </v>
   <v type="int" >        8       24       43       44       49 </v>
   <v type="int" >        8       29       32       33       52 </v>
   <v type="int" >        4       29       32       51       52 </v>
   <v type="int" >        4       29       30       49       52 </v>
   <v type="int" >        8       29       48       49       52 </v>
   <v type="int" >        4       29       32       48       52 </v>
   <v type="int" >        4       32       33       52       52 </v>
   <v type="int" >        4       32       51       52       52 </v>
   <v type="int" >        4       24       29       43       49 </v>
   <v type="int" >        4       29       33       49       52 </v>
   <v type="int" >        4       24       30       44       49 </v>
   <v type="int" >        8       23       28       29       48 </v>
   <v type="int" >        4       23       28       47       48 </v>
   <v type="int" >        4       23       24       43       48 </v>
   <v type="int" >        8       23       42       43       48 </v>
   <v type="int" >        4       28       28       32       51 </v>
   <v type="int" >        4       28       28       47       51 </v>
   <v type="int" >        4       28       29       48       51 </v>
   <v type="int" >        8       28       47       48       51 </v>
   <v type="int" >        4       23       28       42       48 </v>
   <v type="int" >        4       28       32       48       51 </v>
   <v type="int" >        4       23       29       43       48 </v>
   <v type="int" >        8       22       27       28       47 </v>
   <v type="int" >        4       22       27       46       47 </v>
   <v type="int" >        4       22       23       42       47 </v>
   <v type="int" >        8       22       41       42       47 </v>
   <v type="int" >        4       22       27       41       47 </v>
   <v type="int" >        4       27       28       47       47 </v>
   <v type="int" >        4       27       46       47       47 </v>
   <v type="int" >        4       22       28       42       47 </v>
   <v type="int" >        4       21       21       27       46 </v>
   <v type="int" >        4       21       21       40       46 </v>
   <v type="int" >        4       21       22       41       46 </v>
   <v type="int" >        8       21       40       41       46 </v>
   <v type="int" >        4       21       27       41       46 </v>
   <v type="int" >        4       20       21       40       40 </v>
   <v type="int" >        4       20       39       40       40 </v>
  </varray>
  <i name="volumeweight">      0.00028935 </i>
 </kpoints>
 <parameters>
  <separator name="general" >
   <i type="string" name="SYSTEM">unknown system</i>
   <i type="logical" name="LCOMPAT"> F  </i>
  </separator>
  <separator name="electronic" >
   <i type="string" name="PREC">accura</i>
   <i name="ENMAX">    520.00000000</i>
   <i name="ENAUG">    628.94500000</i>
   <i name="EDIFF">      0.00001000</i>
   <i type="int" name="IALGO">    68</i>
   <i type="int" name="IWAVPR">    11</i>
   <i type="int" name="NBANDS">    24</i>
   <i name="NELECT">     36.00000000</i>
   <i type="int" name="TURBO">     0</i>
   <i type="int" name="IRESTART">     0</i>
   <i type="int" name="NREBOOT">     0</i>
   <i type="int" name="NMIN">     0</i>
   <i name="EREF">      0.00000000</i>
   <separator name="electronic smearing" >
    <i type="int" name="ISMEAR">    -5</i>
    <i name="SIGMA">      0.05000000</i>
    <i name="KSPACING">      0.50000000</i>
    <i type="logical" name="KGAMMA"> T  </i>
   </separator>
   <separator name="electronic projectors" >
    <i type="logical" name="LREAL"> T  </i>
    <v name="ROPT">     -0.00025000     -0.00025000</v>
    <i type="int" name="LMAXPAW">  -100</i>
    <i type="int" name="LMAXMIX">     2</i>
    <i type="logical" name="NLSPLINE"> F  </i>
   </separator>
   <separator name="electronic startup" >
    <i type="int" name="ISTART">     0</i>
    <i type="int" name="ICHARG">     2</i>
    <i type="int" name="INIWAV">     1</i>
   </separator>
   <separator name="electronic spin" >
    <i type="int" name="ISPIN">     2</i>
    <i type="logical" name="LNONCOLLINEAR"> F  </i>
    <v name="MAGMOM">      0.00000000      0.00000000      0.00000000      0.00000000      0.00000000      0.00000000      0.00000000      0.00000000</v>
    <i name="NUPDOWN">     -1.00000000</i>
    <i type="logical" name="LSORBIT"> F  </i>
    <v name="SAXIS">      0.00000000      0.00000000      1.00000000</v>
    <i type="logical" name="LSPIRAL"> F  </i>
    <v name="QSPIRAL">      0.00000000      0.00000000      0.00000000</v>
    <i type="logical" name="LZEROZ"> F  </i>
   </separator>
   <separator name="electronic exchange-correlation" >
    <i type="logical" name="LASPH"> T  </i>
    <i type="logical" name="LMETAGGA"> F  </i>
   </separator>
   <separator name="electronic convergence" >
    <i type="int" name="NELM">   100</i>
    <i type="int" name="NELMDL">    -5</i>
    <i type="int" name="NELMIN">     2</i>
    <i name="ENINI">    520.00000000</i>
    <separator name="electronic convergence detail" >
     <i type="logical" name="LDIAG"> T  </i>
     <i type="logical" name="LSUBROT"> F  </i>
     <i name="WEIMIN">      0.00100000</i>
     <i name="EBREAK">      0.00000010</i>
     <i name="DEPER">      0.30000000</i>
     <i type="int" name="NRMM">     4</i>
     <i name="TIME">      0.40000000</i>
    </separator>
   </separator>
   <separator name="electronic mixer" >
    <i name="AMIX">      0.40000000</i>
    <i name="BMIX">      1.00000000</i>
    <i name="AMIN">      0.10000000</i>
    <i name="AMIX_MAG">      1.60000000</i>
    <i name="BMIX_MAG">      1.00000000</i>
    <separator name="electronic mixer details" >
     <i type="int" name="IMIX">     4</i>
     <i type="logical" name="MIXFIRST"> F  </i>
     <i type="int" name="MAXMIX">   -45</i>
     <i name="WC">    100.00000000</i>
     <i type="int" name="INIMIX">     1</i>
     <i type="int" name="MIXPRE">     1</i>
     <i type="int" name="MREMOVE">     5</i>
    </separator>
   </separator>
   <separator name="electronic dipolcorrection" >
    <i type="logical" name="LDIPOL"> F  </i>
    <i type="logical" name="LMONO"> F  </i>
    <i type="int" name="IDIPOL">     0</i>
    <i name="EPSILON">      1.00000000</i>
    <v name="DIPOL">   -100.00000000   -100.00000000   -100.00000000</v>
    <i name="EFIELD">      0.00000000</i>
   </separator>
  </separator>
  <separator name="grids" >
   <i type="int" name="NGX">    24</i>
   <i type="int" name="NGY">    24</i>
   <i type="int" name="NGZ">    60</i>
   <i type="int" name="NGXF">    48</i>
   <i type="int" name="NGYF">    48</i>
   <i type="int" name="NGZF">   120</i>
   <i type="logical" name="ADDGRID"> F  </i>
  </separator>
  <separator name="ionic" >
   <i type="int" name="NSW">    99</i>
   <i type="int" name="IBRION">     2</i>
   <i type="int" name="MDALGO">     0</i>
   <i type="int" name="ISIF">     3</i>
   <i name="PSTRESS">      0.00000000</i>
   <i name="EDIFFG">      0.00010000</i>
   <i type="int" name="NFREE">     1</i>
   <i name="POTIM">      0.50000000</i>
   <i name="SMASS">     -3.00000000</i>
   <i name="SCALEE">      1.00000000</i>
  </separator>
  <separator name="ionic md" >
   <i name="TEBEG">      0.00010000</i>
   <i name="TEEND">      0.00010000</i>
   <i type="int" name="NBLOCK">     1</i>
   <i type="int" name="KBLOCK">    99</i>
   <i type="int" name="NPACO">   256</i>
   <i name="APACO">     16.00000000</i>
  </separator>
  <separator name="symmetry" >
   <i type="int" name="ISYM">     2</i>
   <i name="SYMPREC">      0.00001000</i>
  </separator>
  <separator name="dos" >
   <i type="int" name="LORBIT">    11</i>
   <v name="RWIGS">     -1.00000000     -1.00000000</v>
   <i type="int" name="NEDOS">   301</i>
   <i name="EMIN">     10.00000000</i>
   <i name="EMAX">    -10.00000000</i>
   <i name="EFERMI">      0.00000000</i>
  </separator>
  <separator name="writing" >
   <i type="int" name="NWRITE">     2</i>
   <i type="logical" name="LWAVE"> F  </i>
   <i type="logical" name="LDOWNSAMPLE"> F  </i>
   <i type="logical" name="LCHARG"> F  </i>
   <i type="logical" name="LPARD"> F  </i>
   <i type="logical" name="LVTOT"> F  </i>
   <i type="logical" name="LVHAR"> F  </i>
   <i type="logical" name="LELF"> F  </i>
   <i type="logical" name="LOPTICS"> F  </i>
   <v name="STM">      0.00000000      0.00000000      0.00000000      0.00000000      0.00000000      0.00000000      0.00000000</v>
  </separator>
  <separator name="performance" >
   <i type="int" name="NPAR">     4</i>
   <i type="int" name="NSIM">     4</i>
   <i type="int" name="NBLK">    -1</i>
   <i type="logical" name="LPLANE"> T  </i>
   <i type="logical" name="LSCALAPACK"> T  </i>
   <i type="logical" name="LSCAAWARE"> F  </i>
   <i type="logical" name="LSCALU"> F  </i>
   <i type="logical" name="LASYNC"> F  </i>
   <i type="logical" name="LORBITALREAL"> F  </i>
  </separator>
  <separator name="miscellaneous" >
   <i type="int" name="IDIOT">     3</i>
   <i type="int" name="ISPECIAL">     0</i>
   <i type="logical" name="LMUSIC"> F  </i>
   <v name="POMASS">      7.01000000     16.00000000</v>
   <v name="DARWINR">      0.00000000      0.00000000</v>
   <v name="DARWINV">      1.00000000      1.00000000</v>
   <i type="logical" name="LCORR"> T  </i>
  </separator>
  <i type="logical" name="GGA_COMPAT"> T  </i>
  <i type="logical" name="LBERRY"> F  </i>
  <i type="int" name="ICORELEVEL">     0</i>
  <i type="logical" name="LDAU"> F  </i>
  <i type="int" name="I_CONSTRAINED_M">     0</i>
  <separator name="electronic exchange-correlation" >
   <i type="string" name="GGA">--</i>
   <i type="int" name="VOSKOWN">     0</i>
   <i type="logical" name="LHFCALC"> F  </i>
   <i type="string" name="PRECFOCK"></i>
   <i type="logical" name="LSYMGRAD"> F  </i>
   <i type="logical" name="LHFONE"> F  </i>
   <i type="logical" name="LRHFCALC"> F  </i>
   <i type="logical" name="LTHOMAS"> F  </i>
   <i type="logical" name="LMODELHF"> F  </i>
   <i name="ENCUT4O">     -1.00000000</i>
   <i type="int" name="EXXOEP">     0</i>
   <i type="int" name="FOURORBIT">     0</i>
   <i name="AEXX">      0.00000000</i>
   <i name="HFALPHA">      0.00000000</i>
   <i name="MCALPHA">      0.00000000</i>
   <i name="ALDAX">      1.00000000</i>
   <i name="AGGAX">      1.00000000</i>
   <i name="ALDAC">      1.00000000</i>
   <i name="AGGAC">      1.00000000</i>
   <i type="int" name="NKREDX">     1</i>
   <i type="int" name="NKREDY">     1</i>
   <i type="int" name="NKREDZ">     1</i>
   <i type="logical" name="SHIFTRED"> F  </i>
   <i type="logical" name="ODDONLY"> F  </i>
   <i type="logical" name="EVENONLY"> F  </i>
   <i type="int" name="LMAXFOCK">     0</i>
   <i type="int" name="NMAXFOCKAE">     0</i>
   <i type="logical" name="LFOCKAEDFT"> F  </i>
   <i name="HFSCREEN">      0.00000000</i>
   <i name="HFSCREENC">      0.00000000</i>
   <i type="int" name="NBANDSGWLOW">     0</i>
  </separator>
  <separator name="vdW DFT" >
   <i type="logical" name="LUSE_VDW"> F  </i>
   <i name="Zab_VDW">     -0.84910000</i>
   <i name="PARAM1">      0.12340000</i>
   <i name="PARAM2">      1.00000000</i>
   <i name="PARAM3">      0.00000000</i>
  </separator>
  <separator name="model GW" >
   <i type="int" name="MODEL_GW">     0</i>
   <i name="MODEL_EPS0">      5.06097613</i>
   <i name="MODEL_ALPHA">      1.00000000</i>
  </separator>
  <separator name="linear response parameters" >
   <i type="logical" name="LEPSILON"> F  </i>
   <i type="logical" name="LRPA"> F  </i>
   <i type="logical" name="LNABLA"> F  </i>
   <i type="logical" name="LVEL"> F  </i>
   <i type="int" name="KINTER">     0</i>
   <i name="CSHIFT">      0.10000000</i>
   <i name="OMEGAMAX">     -1.00000000</i>
   <i name="DEG_THRESHOLD">      0.00200000</i>
   <i name="RTIME">     -0.10000000</i>
   <i name="WPLASMAI">      0.00000000</i>
   <v name="DFIELD">      0.00000000      0.00000000      0.00000000</v>
   <v name="WPLASMA">      0.00000000      0.00000000      0.00000000      0.00000000      0.00000000      0.00000000      0.00000000      0.00000000      0.00000000</v>
  </separator>
  <separator name="orbital magnetization" >
   <i type="logical" name="NUCIND"> F  </i>
   <v name="MAGPOS">      0.00000000      0.00000000      0.00000000</v>
   <i type="logical" name="LNICSALL"> T  </i>
   <i type="logical" name="ORBITALMAG"> F  </i>
   <i type="logical" name="LMAGBLOCH"> F  </i>
   <i type="logical" name="LCHIMAG"> F  </i>
   <i type="logical" name="LGAUGE"> T  </i>
   <i type="int" name="MAGATOM">     0</i>
   <v name="MAGDIPOL">      0.00000000      0.00000000      0.00000000</v>
   <v name="AVECCONST">      0.00000000      0.00000000      0.00000000</v>
  </separator>
  <separator name="response functions" >
   <i type="logical" name="LADDER"> F  </i>
   <i type="logical" name="LRPAFORCE"> F  </i>
   <i type="logical" name="LFXC"> F  </i>
   <i type="logical" name="LHARTREE"> T  </i>
   <i type="int" name="IBSE">     0</i>
   <v type="int" name="KPOINT">    -1     0     0     0</v>
   <i type="logical" name="LTCTE"> F  </i>
   <i type="logical" name="LTETE"> F  </i>
   <i type="logical" name="LTRIPLET"> F  </i>
   <i type="logical" name="LFXCEPS"> F  </i>
   <i type="logical" name="LFXHEG"> F  </i>
   <i type="int" name="NATURALO">     2</i>
   <i type="logical" name="L2ORDER"> F  </i>
   <i type="logical" name="LMP2LT"> F  </i>
   <i type="logical" name="LUSEW"> F  </i>
   <i name="ENCUTGW">     -2.00000000</i>
   <i name="ENCUTGWSOFT">     -2.00000000</i>
   <i name="ENCUTLF">     -1.00000000</i>
   <i type="int" name="LMAXMP2">    -1</i>
   <i name="SCISSOR">      0.00000000</i>
   <i type="int" name="NOMEGA">     0</i>
   <i type="int" name="NOMEGAR">     0</i>
   <i type="int" name="NBANDSGW">    -1</i>
   <i type="int" name="NBANDSO">    -1</i>
   <i type="int" name="NBANDSV">    -1</i>
   <i type="int" name="NELM">   100</i>
   <i type="int" name="NELMHF">     1</i>
   <i type="int" name="DIM">     3</i>
   <i type="int" name="ANTIRES">     0</i>
   <i name="OMEGAMAX">    -30.00000000</i>
   <i name="OMEGAMIN">    -30.00000000</i>
   <i name="OMEGATL">   -200.00000000</i>
   <i type="int" name="OMEGAGRID">   140</i>
   <i name="CSHIFT">     -0.10000000</i>
   <i type="logical" name="SELFENERGY"> F  </i>
   <i type="logical" name="LSPECTRAL"> F  </i>
   <i type="logical" name="LSPECTRALGW"> F  </i>
   <i type="logical" name="LSINGLES"> F  </i>
   <i type="logical" name="LFERMIGW"> F  </i>
   <i type="logical" name="ODDONLYGW"> F  </i>
   <i type="logical" name="EVENONLYGW"> F  </i>
   <i type="int" name="NKREDLFX">     1</i>
   <i type="int" name="NKREDLFY">     1</i>
   <i type="int" name="NKREDLFZ">     1</i>
   <i type="int" name="MAXMEM">  2800</i>
   <i type="int" name="TELESCOPE">     0</i>
   <i type="int" name="TAUPAR">     1</i>
   <i type="int" name="OMEGAPAR">    -1</i>
   <i name="LAMBDA">      1.00000000</i>
  </separator>
  <separator name="External order field" >
   <i name="OFIELD_KAPPA">      0.00000000</i>
   <v name="OFIELD_K">      0.00000000      0.00000000      0.00000000</v>
   <i name="OFIELD_Q6_NEAR">      0.00000000</i>
   <i name="OFIELD_Q6_FAR">      0.00000000</i>
   <i name="OFIELD_A">      0.00000000</i>
  </separator>
 </parameters>
 <atominfo>
  <atoms>       8 </atoms>
  <types>       2 </types>
  <array name="atoms" >
   <dimension dim="1">ion</dimension>
   <field type="string">element</field>
   <field type="int">atomtype</field>
   <set>
    <rc><c>Li</c><c>   1</c></rc>
    <rc><c>Li</c><c>   1</c></rc>
    <rc><c>Li</c><c>   1</c></rc>
    <rc><c>Li</c><c>   1</c></rc>
    <rc><c>O </c><c>   2</c></rc>
    <rc><c>O </c><c>   2</c></rc>
    <rc><c>O </c><c>   2</c></rc>
    <rc><c>O </c><c>   2</c></rc>
   </set>
  </array>
  <array name="atomtypes" >
   <dimension dim="1">type</dimension>
   <field type="int">atomspertype</field>
   <field type="string">element</field>
   <field>mass</field>
   <field>valence</field>
   <field type="string">pseudopotential</field>
   <set>
    <rc><c>   4</c><c>Li</c><c>      7.01000000</c><c>      3.00000000</c><c>  PAW_PBE Li_sv 10Sep2004               </c></rc>
    <rc><c>   4</c><c>O </c><c>     16.00000000</c><c>      6.00000000</c><c>  PAW_PBE O 08Apr2002                   </c></rc>
   </set>
  </array>
 </atominfo>
 <structure name="initialpos" >
  <crystal>
   <varray name="basis" >
    <v>       1.59018100      -2.75427400       0.00000000 </v>
    <v>       1.59018100       2.75427400       0.00000000 </v>
    <v>       0.00000000       0.00000000       7.70352200 </v>
   </varray>
   <i name="volume">     67.47968170 </i>
   <varray name="rec_basis" >
    <v>       0.31442962      -0.18153604       0.00000000 </v>
    <v>       0.31442962       0.18153604       0.00000000 </v>
    <v>       0.00000000       0.00000000       0.12981075 </v>
   </varray>
  </crystal>
  <varray name="positions" >
   <v>       0.00000000       0.00000000       0.00000000 </v>
   <v>       0.00000000       0.00000000       0.50000000 </v>
   <v>       0.33333300       0.66666700       0.25000000 </v>
   <v>       0.66666700       0.33333300       0.75000000 </v>
   <v>       0.33333300       0.66666700       0.64931000 </v>
   <v>       0.66666700       0.33333300       0.14931000 </v>
   <v>       0.66666700       0.33333300       0.35069000 </v>
   <v>       0.33333300       0.66666700       0.85069000 </v>
  </varray>
 </structure>
 <calculation>
  <scstep>
   <time name="dav">    1.10    1.21</time>
   <time name="total">    1.41    1.57</time>
   <energy>
    <i name="alphaZ">     65.79552193 </i>
    <i name="ewald">  -1642.00330232 </i>
    <i name="hartreedc">   -588.39760021 </i>
    <i name="XCdc">    161.17012265 </i>
    <i name="pawpsdc">   1705.24440522 </i>
    <i name="pawaedc">  -1774.06085075 </i>
    <i name="eentropy">      0.00000000 </i>
    <i name="bandstr">   -201.81066856 </i>
    <i name="atom">   2540.52333388 </i>
    <i name="e_fr_energy">    266.46096183 </i>
    <i name="e_wo_entrp">    266.46096183 </i>
    <i name="e_0_energy">    266.46096183 </i>
   </energy>
  </scstep>
  <scstep>
   <time name="dav">    1.20    1.20</time>
   <time name="total">    1.21    1.21</time>
   <energy>
    <i name="e_fr_energy">    -16.35531102 </i>
    <i name="e_wo_entrp">    -16.35531102 </i>
    <i name="e_0_energy">    -16.35531102 </i>
   </energy>
  </scstep>
  <scstep>
   <time name="dav">    1.57    1.57</time>
   <time name="total">    1.57    1.58</time>
   <energy>
    <i name="e_fr_energy">    -39.31839659 </i>
    <i name="e_wo_entrp">    -39.31839659 </i>
    <i name="e_0_energy">    -39.31839659 </i>
   </energy>
  </scstep>
  <scstep>
   <time name="dav">    1.40    1.40</time>
   <time name="total">    1.40    1.41</time>
   <energy>
    <i name="e_fr_energy">    -41.13263290 </i>
    <i name="e_wo_entrp">    -41.13263290 </i>
    <i name="e_0_energy">    -41.13263290 </i>
   </energy>
  </scstep>
  <scstep>
   <time name="dav">    1.37    1.37</time>
   <time name="total">    1.44    1.46</time>
   <energy>
    <i name="e_fr_energy">    -41.20109054 </i>
    <i name="e_wo_entrp">    -41.20109054 </i>
    <i name="e_0_energy">    -41.20109054 </i>
   </energy>
  </scstep>
  <scstep>
   <time name="diag">    0.22    0.23</time>
   <time name="diis">    0.50    0.51</time>
   <time name="orth">    0.02    0.02</time>
   <time name="total">    1.06    1.07</time>
   <energy>
    <i name="e_fr_energy">    -39.14206240 </i>
    <i name="e_wo_entrp">    -39.14206240 </i>
    <i name="e_0_energy">    -39.14206240 </i>
   </energy>
  </scstep>
  <scstep>
   <time name="diag">    0.22    0.22</time>
   <time name="diis">    0.52    0.52</time>
   <time name="orth">    0.02    0.02</time>
   <time name="total">    1.09    1.09</time>
   <energy>
    <i name="e_fr_energy">    -38.92134180 </i>
    <i name="e_wo_entrp">    -38.92134180 </i>
    <i name="e_0_energy">    -38.92134180 </i>
   </energy>
  </scstep>
  <scstep>
   <time name="diag">    0.22    0.22</time>
   <time name="diis">    0.55    0.55</time>
   <time name="orth">    0.02    0.02</time>
   <time name="total">    1.11    1.11</time>
   <energy>
    <i name="e_fr_energy">    -38.91922413 </i>
    <i name="e_wo_entrp">    -38.91922413 </i>
    <i name="e_0_energy">    -38.91922413 </i>
   </energy>
  </scstep>
  <scstep>
   <time name="diag">    0.22    0.22</time>
   <time name="diis">    0.59    0.59</time>
   <time name="orth">    0.02    0.02</time>
   <time name="total">    1.14    1.14</time>
   <energy>
    <i name="e_fr_energy">    -38.92660203 </i>
    <i name="e_wo_entrp">    -38.92660203 </i>
    <i name="e_0_energy">    -38.92660203 </i>
   </energy>
  </scstep>
  <scstep>
   <time name="diag">    0.22    0.22</time>
   <time name="diis">    0.57    0.57</time>
   <time name="orth">    0.02    0.02</time>
   <time name="total">    1.13    1.13</time>
   <energy>
    <i name="e_fr_energy">    -38.92696440 </i>
    <i name="e_wo_entrp">    -38.92696440 </i>
    <i name="e_0_energy">    -38.92696440 </i>
   </energy>
  </scstep>
  <scstep>
   <time name="diag">    0.23    0.23</time>
   <time name="diis">    0.62    0.62</time>
   <time name="orth">    0.02    0.02</time>
   <time name="total">    1.18    1.18</time>
   <energy>
    <i name="e_fr_energy">    -38.92801226 </i>
    <i name="e_wo_entrp">    -38.92801226 </i>
    <i name="e_0_energy">    -38.92801226 </i>
   </energy>
  </scstep>
  <scstep>
   <time name="diag">    0.22    0.22</time>
   <time name="diis">    0.64    0.64</time>
   <time name="orth">    0.02    0.02</time>
   <time name="total">    1.20    1.20</time>
   <energy>
    <i name="e_fr_energy">    -38.92798120 </i>
    <i name="e_wo_entrp">    -38.92798120 </i>
    <i name="e_0_energy">    -38.92798120 </i>
   </energy>
  </scstep>
  <scstep>
   <time name="diag">    0.22    0.22</time>
   <time name="diis">    0.52    0.52</time>
   <time name="orth">    0.02    0.02</time>
   <time name="total">    1.08    1.08</time>
   <energy>
    <i name="e_fr_energy">    -38.92829450 </i>
    <i name="e_wo_entrp">    -38.92829450 </i>
    <i name="e_0_energy">    -38.92829450 </i>
   </energy>
  </scstep>
  <scstep>
   <time name="diag">    0.22    0.22</time>
   <time name="diis">    0.55    0.55</time>
   <time name="orth">    0.02    0.02</time>
   <time name="total">    1.11    1.11</time>
   <energy>
    <i name="e_fr_energy">    -38.92837217 </i>
    <i name="e_wo_entrp">    -38.92837217 </i>
    <i name="e_0_energy">    -38.92837217 </i>
   </energy>
  </scstep>
  <scstep>
   <time name="diag">    0.22    0.22</time>
   <time name="diis">    0.47    0.47</time>
   <time name="orth">    0.02    0.02</time>
   <time name="total">    1.03    1.03</time>
   <energy>
    <i name="e_fr_energy">    -38.92839456 </i>
    <i name="e_wo_entrp">    -38.92839456 </i>
    <i name="e_0_energy">    -38.92839456 </i>
   </energy>
  </scstep>
  <scstep>
   <time name="diag">    0.22    0.22</time>
   <time name="diis">    0.39    0.39</time>
   <time name="orth">    0.02    0.02</time>
   <time name="total">    0.90    0.90</time>
   <energy>
    <i name="alphaZ">     65.79552193 </i>
    <i name="ewald">  -1642.00330232 </i>
    <i name="hartreedc">   -624.25131903 </i>
    <i name="XCdc">    163.77142672 </i>
    <i name="pawpsdc">   2087.79785394 </i>
    <i name="pawaedc">  -2158.47400092 </i>
    <i name="eentropy">      0.00000000 </i>
    <i name="bandstr">   -472.08791395 </i>
    <i name="atom">   2540.52333388 </i>
    <i name="e_fr_energy">    -38.92839975 </i>
    <i name="e_wo_entrp">    -38.92839975 </i>
    <i name="e_0_energy">    -38.92839975 </i>
   </energy>
  </scstep>
  <structure>
   <crystal>
    <varray name="basis" >
     <v>       1.59018100      -2.75427400       0.00000000 </v>
     <v>       1.59018100       2.75427400       0.00000000 </v>
     <v>       0.00000000       0.00000000       7.70352200 </v>
    </varray>
    <i name="volume">     67.47968170 </i>
    <varray name="rec_basis" >
     <v>       0.31442962      -0.18153604       0.00000000 </v>
     <v>       0.31442962       0.18153604       0.00000000 </v>
     <v>       0.00000000       0.00000000       0.12981075 </v>
    </varray>
   </crystal>
   <varray name="positions" >
    <v>       0.00000000       0.00000000       0.00000000 </v>
    <v>       0.00000000       0.00000000       0.50000000 </v>
    <v>       0.33333300       0.66666700       0.25000000 </v>
    <v>       0.66666700       0.33333300       0.75000000 </v>
    <v>       0.33333300       0.66666700       0.64931000 </v>
    <v>       0.66666700       0.33333300       0.14931000 </v>
    <v>       0.66666700       0.33333300       0.35069000 </v>
    <v>       0.33333300       0.66666700       0.85069000 </v>
   </varray>
  </structure>
  <varray name="forces" >
   <v>      -0.00000000       0.00000000       0.00000000 </v>
   <v>      -0.00000000       0.00000000       0.00000000 </v>
   <v>       0.00000000       0.00000000       0.00000000 </v>
   <v>       0.00000000       0.00000000       0.00000000 </v>
   <v>       0.00000000       0.00000000       0.00913911 </v>
   <v>      -0.00000000      -0.00000000       0.00913911 </v>
   <v>       0.00000000      -0.00000000      -0.00913911 </v>
   <v>      -0.00000000       0.00000000      -0.00913911 </v>
  </varray>
  <varray name="stress" >
   <v>     -15.06719020      -0.00000000      -0.00000000 </v>
   <v>       0.00000000     -15.06718708       0.00000000 </v>
   <v>      -0.00000000      -0.00000000      -7.98817237 </v>
  </varray>
  <energy>
   <i name="e_fr_energy">    -38.92839975 </i>
   <i name="e_wo_entrp">    -38.92839975 </i>
   <i name="e_0_energy">      0.00000000 </i>
  </energy>
  <time name="totalsc">   20.71   20.97</time>
 </calculation>
 <calculation>
  <scstep>
   <time name="dav">    1.18    1.18</time>
   <time name="total">    1.50    1.50</time>
   <energy>
    <i name="alphaZ">     66.43679073 </i>
    <i name="ewald">  -1647.32565319 </i>
    <i name="hartreedc">   -626.39606842 </i>
    <i name="XCdc">    164.27893595 </i>
    <i name="pawpsdc">   2087.85699832 </i>
    <i name="pawaedc">  -2158.52655781 </i>
    <i name="eentropy">      0.00000000 </i>
    <i name="bandstr">   -465.80001915 </i>
    <i name="atom">   2540.52333388 </i>
    <i name="e_fr_energy">    -38.95223969 </i>
    <i name="e_wo_entrp">    -38.95223969 </i>
    <i name="e_0_energy">    -38.95223969 </i>
   </energy>
  </scstep>
  <scstep>
   <time name="diag">    0.22    0.22</time>
   <time name="diis">    0.47    0.47</time>
   <time name="orth">    0.02    0.02</time>
   <time name="total">    1.02    1.02</time>
   <energy>
    <i name="e_fr_energy">    -38.93364595 </i>
    <i name="e_wo_entrp">    -38.93364595 </i>
    <i name="e_0_energy">    -38.93364595 </i>
   </energy>
  </scstep>
  <scstep>
   <time name="diag">    0.22    0.22</time>
   <time name="diis">    0.58    0.58</time>
   <time name="orth">    0.02    0.02</time>
   <time name="total">    1.13    1.13</time>
   <energy>
    <i name="e_fr_energy">    -38.93235001 </i>
    <i name="e_wo_entrp">    -38.93235001 </i>
    <i name="e_0_energy">    -38.93235001 </i>
   </energy>
  </scstep>
  <scstep>
   <time name="diag">    0.22    0.22</time>
   <time name="diis">    0.55    0.55</time>
   <time name="orth">    0.02    0.02</time>
   <time name="total">    1.11    1.11</time>
   <energy>
    <i name="e_fr_energy">    -38.93216163 </i>
    <i name="e_wo_entrp">    -38.93216163 </i>
    <i name="e_0_energy">    -38.93216163 </i>
   </energy>
  </scstep>
  <scstep>
   <time name="diag">    0.22    0.22</time>
   <time name="diis">    0.53    0.53</time>
   <time name="orth">    0.02    0.02</time>
   <time name="total">    1.09    1.09</time>
   <energy>
    <i name="e_fr_energy">    -38.93209682 </i>
    <i name="e_wo_entrp">    -38.93209682 </i>
    <i name="e_0_energy">    -38.93209682 </i>
   </energy>
  </scstep>
  <scstep>
   <time name="diag">    0.22    0.22</time>
   <time name="diis">    0.48    0.48</time>
   <time name="orth">    0.02    0.02</time>
   <time name="total">    1.04    1.04</time>
   <energy>
    <i name="e_fr_energy">    -38.93210963 </i>
    <i name="e_wo_entrp">    -38.93210963 </i>
    <i name="e_0_energy">    -38.93210963 </i>
   </energy>
  </scstep>
  <scstep>
   <time name="diag">    0.22    0.22</time>
   <time name="diis">    0.38    0.38</time>
   <time name="orth">    0.02    0.02</time>
   <time name="total">    0.88    0.88</time>
   <energy>
    <i name="alphaZ">     66.43679073 </i>
    <i name="ewald">  -1647.32565319 </i>
    <i name="hartreedc">   -621.50980318 </i>
    <i name="XCdc">    163.88634386 </i>
    <i name="pawpsdc">   2093.03775501 </i>
    <i name="pawaedc">  -2163.67225939 </i>
    <i name="eentropy">      0.00000000 </i>
    <i name="bandstr">   -470.30861750 </i>
    <i name="atom">   2540.52333388 </i>
    <i name="e_fr_energy">    -38.93210978 </i>
    <i name="e_wo_entrp">    -38.93210978 </i>
    <i name="e_0_energy">    -38.93210978 </i>
   </energy>
  </scstep>
  <structure>
   <crystal>
    <varray name="basis" >
     <v>       1.58409569      -2.74373394      -0.00000000 </v>
     <v>       1.58409569       2.74373394      -0.00000000 </v>
     <v>      -0.00000000      -0.00000000       7.68789267 </v>
    </varray>
    <i name="volume">     66.82834659 </i>
    <varray name="rec_basis" >
     <v>       0.31563750      -0.18223341       0.00000000 </v>
     <v>       0.31563750       0.18223341       0.00000000 </v>
     <v>       0.00000000       0.00000000       0.13007466 </v>
    </varray>
   </crystal>
   <varray name="positions" >
    <v>      -0.00000000       0.00000000       0.00000000 </v>
    <v>      -0.00000000      -0.00000000       0.50000000 </v>
    <v>       0.33333300       0.66666700       0.25000000 </v>
    <v>       0.66666700       0.33333300       0.75000000 </v>
    <v>       0.33333300       0.66666700       0.64936723 </v>
    <v>       0.66666700       0.33333300       0.14936723 </v>
    <v>       0.66666700       0.33333300       0.35063277 </v>
    <v>       0.33333300       0.66666700       0.85063277 </v>
   </varray>
  </structure>
  <varray name="forces" >
   <v>       0.00000000      -0.00000000       0.00000000 </v>
   <v>       0.00000000      -0.00000000       0.00000000 </v>
   <v>       0.00000000       0.00000000       0.00000000 </v>
   <v>       0.00000000       0.00000000       0.00000000 </v>
   <v>      -0.00000000      -0.00000000      -0.04882766 </v>
   <v>      -0.00000000       0.00000000      -0.04882766 </v>
   <v>       0.00000000       0.00000000       0.04882766 </v>
   <v>      -0.00000000      -0.00000000       0.04882766 </v>
  </varray>
  <varray name="stress" >
   <v>      -5.53428886      -0.00000000       0.00000000 </v>
   <v>       0.00000000      -5.53428772       0.00000000 </v>
   <v>       0.00000000       0.00000000       1.18804805 </v>
  </varray>
  <energy>
   <i name="e_fr_energy">    -38.93210978 </i>
   <i name="e_wo_entrp">    -38.93210978 </i>
   <i name="e_0_energy">      0.00000000 </i>
  </energy>
  <time name="totalsc">    9.39    9.40</time>
 </calculation>
 <calculation>
  <scstep>
   <time name="dav">    1.07    1.07</time>
   <time name="total">    1.39    1.39</time>
   <energy>
    <i name="alphaZ">     66.63746248 </i>
    <i name="ewald">  -1648.98393720 </i>
    <i name="hartreedc">   -622.18793119 </i>
    <i name="XCdc">    164.04467837 </i>
    <i name="pawpsdc">   2093.01990919 </i>
    <i name="pawaedc">  -2163.65492459 </i>
    <i name="eentropy">      0.00000000 </i>
    <i name="bandstr">   -468.33302417 </i>
    <i name="atom">   2540.52333388 </i>
    <i name="e_fr_energy">    -38.93443324 </i>
    <i name="e_wo_entrp">    -38.93443324 </i>
    <i name="e_0_energy">    -38.93443324 </i>
   </energy>
  </scstep>
  <scstep>
   <time name="diag">    0.22    0.22</time>
   <time name="diis">    0.47    0.47</time>
   <time name="orth">    0.02    0.02</time>
   <time name="total">    1.03    1.03</time>
   <energy>
    <i name="e_fr_energy">    -38.93268965 </i>
    <i name="e_wo_entrp">    -38.93268965 </i>
    <i name="e_0_energy">    -38.93268965 </i>
   </energy>
  </scstep>
  <scstep>
   <time name="diag">    0.22    0.22</time>
   <time name="diis">    0.58    0.58</time>
   <time name="orth">    0.02    0.02</time>
   <time name="total">    1.14    1.14</time>
   <energy>
    <i name="e_fr_energy">    -38.93253076 </i>
    <i name="e_wo_entrp">    -38.93253076 </i>
    <i name="e_0_energy">    -38.93253076 </i>
   </energy>
  </scstep>
  <scstep>
   <time name="diag">    0.23    0.23</time>
   <time name="diis">    0.52    0.52</time>
   <time name="orth">    0.02    0.02</time>
   <time name="total">    1.09    1.09</time>
   <energy>
    <i name="e_fr_energy">    -38.93250717 </i>
    <i name="e_wo_entrp">    -38.93250717 </i>
    <i name="e_0_energy">    -38.93250717 </i>
   </energy>
  </scstep>
  <scstep>
   <time name="diag">    0.22    0.22</time>
   <time name="diis">    0.50    0.50</time>
[...]
        <r>  0.0041  0.0040  0.0002  0.0016  0.0000  0.0000  0.0000  0.0000  0.0000 </r>
        <r>  0.0000  0.0000  0.0629  0.0000  0.0000  0.0000  0.0000  0.0000  0.0000 </r>
        <r>  0.0027  0.0304  0.0274  0.0438  0.0000  0.0000  0.0000  0.0000  0.0000 </r>
        <r>  0.0104  0.0112  0.0159  0.0111  0.0000  0.0000  0.0000  0.0000  0.0000 </r>
        <r>  0.0109  0.0153  0.0183  0.0084  0.0000  0.0000  0.0000  0.0000  0.0000 </r>
        <r>  0.0022  0.0263  0.0250  0.0465  0.0000  0.0000  0.0000  0.0000  0.0000 </r>
       </set>
      </set>
      <set comment="kpoint 57">
       <set comment="band 1">
        <r>  0.3474  0.0000  0.0000  0.0000  0.0000  0.0000  0.0000  0.0000  0.0000 </r>
        <r>  0.6418  0.0000  0.0000  0.0000  0.0000  0.0000  0.0000  0.0000  0.0000 </r>
        <r>  0.0000  0.0000  0.0000  0.0000  0.0000  0.0000  0.0000  0.0000  0.0000 </r>
        <r>  0.0000  0.0000  0.0000  0.0000  0.0000  0.0000  0.0000  0.0000  0.0000 </r>
        <r>  0.0000  0.0000  0.0000  0.0000  0.0000  0.0000  0.0000  0.0000  0.0000 </r>
        <r>  0.0000  0.0000  0.0000  0.0000  0.0000  0.0000  0.0000  0.0000  0.0000 </r>
        <r>  0.0000  0.0000  0.0000  0.0000  0.0000  0.0000  0.0000  0.0000  0.0000 </r>
        <r>  0.0000  0.0000  0.0000  0.0000  0.0000  0.0000  0.0000  0.0000  0.0000 </r>
       </set>
       <set comment="band 2">
        <r>  0.6418  0.0000  0.0000  0.0000  0.0000  0.0000  0.0000  0.0000  0.0000 </r>
        <r>  0.3474  0.0000  0.0000  0.0000  0.0000  0.0000  0.0000  0.0000  0.0000 </r>
        <r>  0.0000  0.0000  0.0000  0.0000  0.0000  0.0000  0.0000  0.0000  0.0000 </r>
        <r>  0.0000  0.0000  0.0000  0.0000  0.0000  0.0000  0.0000  0.0000  0.0000 </r>
        <r>  0.0000  0.0000  0.0000  0.0000  0.0000  0.0000  0.0000  0.0000  0.0000 </r>
        <r>  0.0000  0.0000  0.0000  0.0000  0.0000  0.0000  0.0000  0.0000  0.0000 </r>
        <r>  0.0000  0.0000  0.0000  0.0000  0.0000  0.0000  0.0000  0.0000  0.0000 </r>
        <r>  0.0000  0.0000  0.0000  0.0000  0.0000  0.0000  0.0000  0.0000  0.0000 </r>
       </set>
       <set comment="band 3">
        <r>  0.0000  0.0000  0.0000  0.0000  0.0000  0.0000  0.0000  0.0000  0.0000 </r>
        <r>  0.0000  0.0000  0.0000  0.0000  0.0000  0.0000  0.0000  0.0000  0.0000 </r>
        <r>  0.9883  0.0000  0.0000  0.0000  0.0000  0.0000  0.0000  0.0000  0.0000 </r>
        <r>  0.0000  0.0000  0.0000  0.0000  0.0000  0.0000  0.0000  0.0000  0.0000 </r>
        <r>  0.0000  0.0000  0.0000  0.0000  0.0000  0.0000  0.0000  0.0000  0.0000 </r>
        <r>  0.0000  0.0001  0.0000  0.0001  0.0000  0.0000  0.0000  0.0000  0.0000 </r>
        <r>  0.0000  0.0001  0.0000  0.0001  0.0000  0.0000  0.0000  0.0000  0.0000 </r>
        <r>  0.0000  0.0000  0.0000  0.0000  0.0000  0.0000  0.0000  0.0000  0.0000 </r>
       </set>
       <set comment="band 4">
        <r>  0.0000  0.0000  0.0000  0.0000  0.0000  0.0000  0.0000  0.0000  0.0000 </r>
        <r>  0.0000  0.0000  0.0000  0.0000  0.0000  0.0000  0.0000  0.0000  0.0000 </r>
        <r>  0.0000  0.0000  0.0000  0.0000  0.0000  0.0000  0.0000  0.0000  0.0000 </r>
        <r>  0.9883  0.0000  0.0000  0.0000  0.0000  0.0000  0.0000  0.0000  0.0000 </r>
        <r>  0.0000  0.0001  0.0000  0.0001  0.0000  0.0000  0.0000  0.0000  0.0000 </r>
        <r>  0.0000  0.0000  0.0000  0.0000  0.0000  0.0000  0.0000  0.0000  0.0000 </r>
        <r>  0.0000  0.0000  0.0000  0.0000  0.0000  0.0000  0.0000  0.0000  0.0000 </r>
        <r>  0.0000  0.0001  0.0000  0.0001  0.0000  0.0000  0.0000  0.0000  0.0000 </r>
       </set>
       <set comment="band 5">
        <r>  0.0000  0.0000  0.0000  0.0000  0.0000  0.0000  0.0000  0.0000  0.0000 </r>
        <r>  0.0000  0.0000  0.0000  0.0000  0.0000  0.0000  0.0000  0.0000  0.0000 </r>
        <r>  0.0000  0.0009  0.0000  0.0009  0.0000  0.0000  0.0000  0.0000  0.0000 </r>
        <r>  0.0000  0.0000  0.0000  0.0000  0.0000  0.0000  0.0000  0.0000  0.0000 </r>
        <r>  0.0000  0.0000  0.0000  0.0000  0.0000  0.0000  0.0000  0.0000  0.0000 </r>
        <r>  0.3745  0.0000  0.0250  0.0000  0.0000  0.0000  0.0000  0.0000  0.0000 </r>
        <r>  0.3745  0.0000  0.0250  0.0000  0.0000  0.0000  0.0000  0.0000  0.0000 </r>
        <r>  0.0000  0.0000  0.0000  0.0000  0.0000  0.0000  0.0000  0.0000  0.0000 </r>
       </set>
       <set comment="band 6">
        <r>  0.0000  0.0000  0.0000  0.0000  0.0000  0.0000  0.0000  0.0000  0.0000 </r>
        <r>  0.0000  0.0000  0.0000  0.0000  0.0000  0.0000  0.0000  0.0000  0.0000 </r>
        <r>  0.0000  0.0000  0.0000  0.0000  0.0000  0.0000  0.0000  0.0000  0.0000 </r>
        <r>  0.0000  0.0009  0.0000  0.0009  0.0000  0.0000  0.0000  0.0000  0.0000 </r>
        <r>  0.3745  0.0000  0.0250  0.0000  0.0000  0.0000  0.0000  0.0000  0.0000 </r>
        <r>  0.0000  0.0000  0.0000  0.0000  0.0000  0.0000  0.0000  0.0000  0.0000 </r>
        <r>  0.0000  0.0000  0.0000  0.0000  0.0000  0.0000  0.0000  0.0000  0.0000 </r>
        <r>  0.3745  0.0000  0.0250  0.0000  0.0000  0.0000  0.0000  0.0000  0.0000 </r>
       </set>
       <set comment="band 7">
        <r>  0.0000  0.0002  0.0000  0.0002  0.0000  0.0000  0.0000  0.0000  0.0000 </r>
        <r>  0.0000  0.0002  0.0000  0.0002  0.0000  0.0000  0.0000  0.0000  0.0000 </r>
        <r>  0.0000  0.0000  0.0000  0.0000  0.0000  0.0000  0.0000  0.0000  0.0000 </r>
        <r>  0.0000  0.0000  0.0000  0.0000  0.0000  0.0000  0.0000  0.0000  0.0000 </r>
        <r>  0.0000  0.0001  0.0000  0.0001  0.0000  0.0000  0.0000  0.0000  0.0000 </r>
        <r>  0.3967  0.0000  0.0111  0.0000  0.0000  0.0000  0.0000  0.0000  0.0000 </r>
        <r>  0.3967  0.0000  0.0111  0.0000  0.0000  0.0000  0.0000  0.0000  0.0000 </r>
        <r>  0.0000  0.0001  0.0000  0.0001  0.0000  0.0000  0.0000  0.0000  0.0000 </r>
       </set>
       <set comment="band 8">
        <r>  0.0000  0.0002  0.0000  0.0002  0.0000  0.0000  0.0000  0.0000  0.0000 </r>
        <r>  0.0000  0.0002  0.0000  0.0002  0.0000  0.0000  0.0000  0.0000  0.0000 </r>
        <r>  0.0000  0.0000  0.0000  0.0000  0.0000  0.0000  0.0000  0.0000  0.0000 </r>
        <r>  0.0000  0.0000  0.0000  0.0000  0.0000  0.0000  0.0000  0.0000  0.0000 </r>
        <r>  0.3967  0.0000  0.0111  0.0000  0.0000  0.0000  0.0000  0.0000  0.0000 </r>
        <r>  0.0000  0.0001  0.0000  0.0001  0.0000  0.0000  0.0000  0.0000  0.0000 </r>
        <r>  0.0000  0.0001  0.0000  0.0001  0.0000  0.0000  0.0000  0.0000  0.0000 </r>
        <r>  0.3967  0.0000  0.0111  0.0000  0.0000  0.0000  0.0000  0.0000  0.0000 </r>
       </set>
       <set comment="band 9">
        <r>  0.0000  0.0016  0.0000  0.0016  0.0000  0.0000  0.0000  0.0000  0.0000 </r>
        <r>  0.0000  0.0016  0.0000  0.0016  0.0000  0.0000  0.0000  0.0000  0.0000 </r>
        <r>  0.0000  0.0003  0.0000  0.0003  0.0000  0.0000  0.0000  0.0000  0.0000 </r>
        <r>  0.0000  0.0000  0.0009  0.0000  0.0000  0.0000  0.0000  0.0000  0.0000 </r>
        <r>  0.0000  0.0039  0.0000  0.0039  0.0000  0.0000  0.0000  0.0000  0.0000 </r>
        <r>  0.0171  0.0000  0.3314  0.0000  0.0000  0.0000  0.0000  0.0000  0.0000 </r>
        <r>  0.0171  0.0000  0.3314  0.0000  0.0000  0.0000  0.0000  0.0000  0.0000 </r>
        <r>  0.0000  0.0039  0.0000  0.0039  0.0000  0.0000  0.0000  0.0000  0.0000 </r>
       </set>
       <set comment="band 10">
        <r>  0.0000  0.0016  0.0000  0.0016  0.0000  0.0000  0.0000  0.0000  0.0000 </r>
        <r>  0.0000  0.0016  0.0000  0.0016  0.0000  0.0000  0.0000  0.0000  0.0000 </r>
        <r>  0.0000  0.0000  0.0009  0.0000  0.0000  0.0000  0.0000  0.0000  0.0000 </r>
        <r>  0.0000  0.0003  0.0000  0.0003  0.0000  0.0000  0.0000  0.0000  0.0000 </r>
        <r>  0.0171  0.0000  0.3314  0.0000  0.0000  0.0000  0.0000  0.0000  0.0000 </r>
        <r>  0.0000  0.0039  0.0000  0.0039  0.0000  0.0000  0.0000  0.0000  0.0000 </r>
        <r>  0.0000  0.0039  0.0000  0.0039  0.0000  0.0000  0.0000  0.0000  0.0000 </r>
        <r>  0.0171  0.0000  0.3314  0.0000  0.0000  0.0000  0.0000  0.0000  0.0000 </r>
       </set>
       <set comment="band 11">
        <r>  0.0042  0.0000  0.0018  0.0000  0.0000  0.0000  0.0000  0.0000  0.0000 </r>
        <r>  0.0042  0.0000  0.0018  0.0000  0.0000  0.0000  0.0000  0.0000  0.0000 </r>
        <r>  0.0000  0.0108  0.0000  0.0108  0.0000  0.0000  0.0000  0.0000  0.0000 </r>
        <r>  0.0000  0.0000  0.0000  0.0000  0.0000  0.0000  0.0000  0.0000  0.0000 </r>
        <r>  0.0000  0.0003  0.0000  0.0003  0.0000  0.0000  0.0000  0.0000  0.0000 </r>
        <r>  0.0000  0.1359  0.0000  0.1359  0.0000  0.0000  0.0000  0.0000  0.0000 </r>
        <r>  0.0000  0.1359  0.0000  0.1359  0.0000  0.0000  0.0000  0.0000  0.0000 </r>
        <r>  0.0000  0.0003  0.0000  0.0003  0.0000  0.0000  0.0000  0.0000  0.0000 </r>
       </set>
       <set comment="band 12">
        <r>  0.0042  0.0000  0.0018  0.0000  0.0000  0.0000  0.0000  0.0000  0.0000 </r>
        <r>  0.0042  0.0000  0.0018  0.0000  0.0000  0.0000  0.0000  0.0000  0.0000 </r>
        <r>  0.0000  0.0000  0.0000  0.0000  0.0000  0.0000  0.0000  0.0000  0.0000 </r>
        <r>  0.0000  0.0108  0.0000  0.0108  0.0000  0.0000  0.0000  0.0000  0.0000 </r>
        <r>  0.0000  0.1359  0.0000  0.1359  0.0000  0.0000  0.0000  0.0000  0.0000 </r>
        <r>  0.0000  0.0003  0.0000  0.0003  0.0000  0.0000  0.0000  0.0000  0.0000 </r>
        <r>  0.0000  0.0003  0.0000  0.0003  0.0000  0.0000  0.0000  0.0000  0.0000 </r>
        <r>  0.0000  0.1359  0.0000  0.1359  0.0000  0.0000  0.0000  0.0000  0.0000 </r>
       </set>
       <set comment="band 13">
        <r>  0.0000  0.0012  0.0000  0.0012  0.0000  0.0000  0.0000  0.0000  0.0000 </r>
        <r>  0.0000  0.0012  0.0000  0.0012  0.0000  0.0000  0.0000  0.0000  0.0000 </r>
        <r>  0.0319  0.0000  0.0000  0.0000  0.0000  0.0000  0.0000  0.0000  0.0000 </r>
        <r>  0.0000  0.0000  0.0000  0.0000  0.0000  0.0000  0.0000  0.0000  0.0000 </r>
        <r>  0.0023  0.0000  0.0009  0.0000  0.0000  0.0000  0.0000  0.0000  0.0000 </r>
        <r>  0.0000  0.1498  0.0000  0.1498  0.0000  0.0000  0.0000  0.0000  0.0000 </r>
        <r>  0.0000  0.1498  0.0000  0.1498  0.0000  0.0000  0.0000  0.0000  0.0000 </r>
        <r>  0.0023  0.0000  0.0009  0.0000  0.0000  0.0000  0.0000  0.0000  0.0000 </r>
       </set>
       <set comment="band 14">
        <r>  0.0000  0.0012  0.0000  0.0012  0.0000  0.0000  0.0000  0.0000  0.0000 </r>
        <r>  0.0000  0.0012  0.0000  0.0012  0.0000  0.0000  0.0000  0.0000  0.0000 </r>
        <r>  0.0000  0.0000  0.0000  0.0000  0.0000  0.0000  0.0000  0.0000  0.0000 </r>
        <r>  0.0319  0.0000  0.0000  0.0000  0.0000  0.0000  0.0000  0.0000  0.0000 </r>
        <r>  0.0000  0.1498  0.0000  0.1498  0.0000  0.0000  0.0000  0.0000  0.0000 </r>
        <r>  0.0023  0.0000  0.0009  0.0000  0.0000  0.0000  0.0000  0.0000  0.0000 </r>
        <r>  0.0023  0.0000  0.0009  0.0000  0.0000  0.0000  0.0000  0.0000  0.0000 </r>
        <r>  0.0000  0.1498  0.0000  0.1498  0.0000  0.0000  0.0000  0.0000  0.0000 </r>
       </set>
       <set comment="band 15">
        <r>  0.0000  0.0016  0.0000  0.0016  0.0000  0.0000  0.0000  0.0000  0.0000 </r>
        <r>  0.0000  0.0016  0.0000  0.0016  0.0000  0.0000  0.0000  0.0000  0.0000 </r>
        <r>  0.0000  0.0000  0.0181  0.0000  0.0000  0.0000  0.0000  0.0000  0.0000 </r>
        <r>  0.0000  0.0000  0.0000  0.0000  0.0000  0.0000  0.0000  0.0000  0.0000 </r>
        <r>  0.0035  0.0000  0.0224  0.0000  0.0000  0.0000  0.0000  0.0000  0.0000 </r>
        <r>  0.0000  0.1508  0.0000  0.1508  0.0000  0.0000  0.0000  0.0000  0.0000 </r>
        <r>  0.0000  0.1508  0.0000  0.1508  0.0000  0.0000  0.0000  0.0000  0.0000 </r>
        <r>  0.0035  0.0000  0.0224  0.0000  0.0000  0.0000  0.0000  0.0000  0.0000 </r>
       </set>
       <set comment="band 16">
        <r>  0.0000  0.0016  0.0000  0.0016  0.0000  0.0000  0.0000  0.0000  0.0000 </r>
        <r>  0.0000  0.0016  0.0000  0.0016  0.0000  0.0000  0.0000  0.0000  0.0000 </r>
        <r>  0.0000  0.0000  0.0000  0.0000  0.0000  0.0000  0.0000  0.0000  0.0000 </r>
        <r>  0.0000  0.0000  0.0181  0.0000  0.0000  0.0000  0.0000  0.0000  0.0000 </r>
        <r>  0.0000  0.1508  0.0000  0.1508  0.0000  0.0000  0.0000  0.0000  0.0000 </r>
        <r>  0.0035  0.0000  0.0224  0.0000  0.0000  0.0000  0.0000  0.0000  0.0000 </r>
        <r>  0.0035  0.0000  0.0224  0.0000  0.0000  0.0000  0.0000  0.0000  0.0000 </r>
        <r>  0.0000  0.1508  0.0000  0.1508  0.0000  0.0000  0.0000  0.0000  0.0000 </r>
       </set>
       <set comment="band 17">
        <r>  0.0061  0.0000  0.0040  0.0000  0.0000  0.0000  0.0000  0.0000  0.0000 </r>
        <r>  0.0061  0.0000  0.0040  0.0000  0.0000  0.0000  0.0000  0.0000  0.0000 </r>
        <r>  0.0000  0.0000  0.0000  0.0000  0.0000  0.0000  0.0000  0.0000  0.0000 </r>
        <r>  0.0000  0.0001  0.0000  0.0001  0.0000  0.0000  0.0000  0.0000  0.0000 </r>
        <r>  0.0000  0.0004  0.0000  0.0004  0.0000  0.0000  0.0000  0.0000  0.0000 </r>
        <r>  0.0000  0.1663  0.0000  0.1663  0.0000  0.0000  0.0000  0.0000  0.0000 </r>
        <r>  0.0000  0.1663  0.0000  0.1663  0.0000  0.0000  0.0000  0.0000  0.0000 </r>
        <r>  0.0000  0.0004  0.0000  0.0004  0.0000  0.0000  0.0000  0.0000  0.0000 </r>
       </set>
       <set comment="band 18">
        <r>  0.0061  0.0000  0.0040  0.0000  0.0000  0.0000  0.0000  0.0000  0.0000 </r>
        <r>  0.0061  0.0000  0.0040  0.0000  0.0000  0.0000  0.0000  0.0000  0.0000 </r>
        <r>  0.0000  0.0001  0.0000  0.0001  0.0000  0.0000  0.0000  0.0000  0.0000 </r>
        <r>  0.0000  0.0000  0.0000  0.0000  0.0000  0.0000  0.0000  0.0000  0.0000 </r>
        <r>  0.0000  0.1663  0.0000  0.1663  0.0000  0.0000  0.0000  0.0000  0.0000 </r>
        <r>  0.0000  0.0004  0.0000  0.0004  0.0000  0.0000  0.0000  0.0000  0.0000 </r>
        <r>  0.0000  0.0004  0.0000  0.0004  0.0000  0.0000  0.0000  0.0000  0.0000 </r>
        <r>  0.0000  0.1663  0.0000  0.1663  0.0000  0.0000  0.0000  0.0000  0.0000 </r>
       </set>
       <set comment="band 19">
        <r>  0.0000  0.0038  0.0000  0.0038  0.0000  0.0000  0.0000  0.0000  0.0000 </r>
        <r>  0.0000  0.0038  0.0000  0.0038  0.0000  0.0000  0.0000  0.0000  0.0000 </r>
        <r>  0.0000  0.0000  0.0000  0.0000  0.0000  0.0000  0.0000  0.0000  0.0000 </r>
        <r>  0.0000  0.0000  0.0000  0.0000  0.0000  0.0000  0.0000  0.0000  0.0000 </r>
        <r>  0.0000  0.0059  0.0000  0.0059  0.0000  0.0000  0.0000  0.0000  0.0000 </r>
        <r>  0.0319  0.0000  0.3179  0.0000  0.0000  0.0000  0.0000  0.0000  0.0000 </r>
        <r>  0.0319  0.0000  0.3179  0.0000  0.0000  0.0000  0.0000  0.0000  0.0000 </r>
        <r>  0.0000  0.0059  0.0000  0.0059  0.0000  0.0000  0.0000  0.0000  0.0000 </r>
       </set>
       <set comment="band 20">
        <r>  0.0000  0.0038  0.0000  0.0038  0.0000  0.0000  0.0000  0.0000  0.0000 </r>
        <r>  0.0000  0.0038  0.0000  0.0038  0.0000  0.0000  0.0000  0.0000  0.0000 </r>
        <r>  0.0000  0.0000  0.0000  0.0000  0.0000  0.0000  0.0000  0.0000  0.0000 </r>
        <r>  0.0000  0.0000  0.0000  0.0000  0.0000  0.0000  0.0000  0.0000  0.0000 </r>
        <r>  0.0319  0.0000  0.3179  0.0000  0.0000  0.0000  0.0000  0.0000  0.0000 </r>
        <r>  0.0000  0.0059  0.0000  0.0059  0.0000  0.0000  0.0000  0.0000  0.0000 </r>
        <r>  0.0000  0.0059  0.0000  0.0059  0.0000  0.0000  0.0000  0.0000  0.0000 </r>
        <r>  0.0319  0.0000  0.3179  0.0000  0.0000  0.0000  0.0000  0.0000  0.0000 </r>
       </set>
       <set comment="band 21">
        <r>  0.0093  0.0000  0.0373  0.0000  0.0000  0.0000  0.0000  0.0000  0.0000 </r>
        <r>  0.0102  0.0000  0.0340  0.0000  0.0000  0.0000  0.0000  0.0000  0.0000 </r>
        <r>  0.0000  0.0188  0.0000  0.0188  0.0000  0.0000  0.0000  0.0000  0.0000 </r>
        <r>  0.0000  0.0000  0.0000  0.0000  0.0000  0.0000  0.0000  0.0000  0.0000 </r>
        <r>  0.0000  0.0003  0.0000  0.0003  0.0000  0.0000  0.0000  0.0000  0.0000 </r>
        <r>  0.0000  0.0650  0.0000  0.0650  0.0000  0.0000  0.0000  0.0000  0.0000 </r>
        <r>  0.0000  0.0645  0.0000  0.0645  0.0000  0.0000  0.0000  0.0000  0.0000 </r>
        <r>  0.0000  0.0008  0.0000  0.0008  0.0000  0.0000  0.0000  0.0000  0.0000 </r>
       </set>
       <set comment="band 22">
        <r>  0.0102  0.0000  0.0340  0.0000  0.0000  0.0000  0.0000  0.0000  0.0000 </r>
        <r>  0.0093  0.0000  0.0373  0.0000  0.0000  0.0000  0.0000  0.0000  0.0000 </r>
        <r>  0.0000  0.0000  0.0000  0.0000  0.0000  0.0000  0.0000  0.0000  0.0000 </r>
        <r>  0.0000  0.0188  0.0000  0.0188  0.0000  0.0000  0.0000  0.0000  0.0000 </r>
        <r>  0.0000  0.0651  0.0000  0.0650  0.0000  0.0000  0.0000  0.0000  0.0000 </r>
        <r>  0.0000  0.0003  0.0000  0.0003  0.0000  0.0000  0.0000  0.0000  0.0000 </r>
        <r>  0.0000  0.0008  0.0000  0.0008  0.0000  0.0000  0.0000  0.0000  0.0000 </r>
        <r>  0.0000  0.0646  0.0000  0.0645  0.0000  0.0000  0.0000  0.0000  0.0000 </r>
       </set>
       <set comment="band 23">
        <r>  0.0000  0.0310  0.0000  0.0270  0.0000  0.0000  0.0000  0.0000  0.0000 </r>
        <r>  0.0000  0.0273  0.0000  0.0310  0.0000  0.0000  0.0000  0.0000  0.0000 </r>
        <r>  0.0000  0.0000  0.0786  0.0000  0.0000  0.0000  0.0000  0.0000  0.0000 </r>
        <r>  0.0000  0.0046  0.0004  0.0046  0.0000  0.0000  0.0000  0.0000  0.0000 </r>
        <r>  0.0184  0.0003  0.0207  0.0003  0.0000  0.0000  0.0000  0.0000  0.0000 </r>
        <r>  0.0001  0.0540  0.0001  0.0540  0.0000  0.0000  0.0000  0.0000  0.0000 </r>
        <r>  0.0001  0.0542  0.0001  0.0542  0.0000  0.0000  0.0000  0.0000  0.0000 </r>
        <r>  0.0184  0.0003  0.0205  0.0003  0.0000  0.0000  0.0000  0.0000  0.0000 </r>
       </set>
       <set comment="band 24">
        <r>  0.0000  0.0273  0.0000  0.0311  0.0000  0.0000  0.0000  0.0000  0.0000 </r>
        <r>  0.0000  0.0310  0.0000  0.0270  0.0000  0.0000  0.0000  0.0000  0.0000 </r>
        <r>  0.0000  0.0046  0.0004  0.0046  0.0000  0.0000  0.0000  0.0000  0.0000 </r>
        <r>  0.0000  0.0000  0.0786  0.0000  0.0000  0.0000  0.0000  0.0000  0.0000 </r>
        <r>  0.0001  0.0540  0.0001  0.0540  0.0000  0.0000  0.0000  0.0000  0.0000 </r>
        <r>  0.0184  0.0003  0.0207  0.0003  0.0000  0.0000  0.0000  0.0000  0.0000 </r>
        <r>  0.0184  0.0003  0.0205  0.0003  0.0000  0.0000  0.0000  0.0000  0.0000 </r>
        <r>  0.0001  0.0542  0.0001  0.0542  0.0000  0.0000  0.0000  0.0000  0.0000 </r>
       </set>
      </set>
     </set>
    </set>
   </array>
  </projected>
 </calculation>
 <structure name="finalpos" >
  <crystal>
   <varray name="basis" >
    <v>       1.58104669      -2.73845291      -0.00000000 </v>
    <v>       1.58104669       2.73845291       0.00000000 </v>
    <v>      -0.00000000      -0.00000000       7.68621822 </v>
   </varray>
   <i name="volume">     66.55683757 </i>
   <varray name="rec_basis" >
    <v>       0.31624620      -0.18258484      -0.00000000 </v>
    <v>       0.31624620       0.18258484       0.00000000 </v>
    <v>       0.00000000      -0.00000000       0.13010299 </v>
   </varray>
  </crystal>
  <varray name="positions" >
   <v>      -0.00000000       0.00000000       0.00000000 </v>
   <v>      -0.00000000      -0.00000000       0.50000000 </v>
   <v>       0.33333300       0.66666700       0.25000000 </v>
   <v>       0.66666700       0.33333300       0.75000000 </v>
   <v>       0.33333300       0.66666700       0.64914668 </v>
   <v>       0.66666700       0.33333300       0.14914668 </v>
   <v>       0.66666700       0.33333300       0.35085332 </v>
   <v>       0.33333300       0.66666700       0.85085332 </v>
  </varray>
 </structure>
</modeling>
