unknown system                          
           1
     1.590181   -2.754274    0.000000
     1.590181    2.754274    0.000000
     0.000000    0.000000    7.703522
   Li   O 
   4   4
Direct configuration=     1
   0.00000000  0.00000000  0.00000000
   0.00000000  0.00000000  0.50000000
   0.33333300  0.66666700  0.25000000
   0.66666700  0.33333300  0.75000000
   0.33333300  0.66666700  0.64931000
   0.66666700  0.33333300  0.14931000
   0.66666700  0.33333300  0.35069000
   0.33333300  0.66666700  0.85069000
unknown system                          
           1
     1.584096   -2.743734   -0.000000
     1.584096    2.743734   -0.000000
    -0.000000   -0.000000    7.687893
   Li   O 
   4   4
Direct configuration=     2
  -0.00000000  0.00000000  0.00000000
  -0.00000000 -0.00000000  0.50000000
   0.33333300  0.66666700  0.25000000
   0.66666700  0.33333300  0.75000000
   0.33333300  0.66666700  0.64936723
   0.66666700  0.33333300  0.14936723
   0.66666700  0.33333300  0.35063277
   0.33333300  0.66666700  0.85063277
unknown system                          
           1
     1.582208   -2.740464   -0.000000
     1.582208    2.740464   -0.000000
    -0.000000   -0.000000    7.683044
   Li   O 
   4   4
Direct configuration=     3
  -0.00000000  0.00000000  0.00000000
  -0.00000000 -0.00000000  0.50000000
   0.33333300  0.66666700  0.25000000
   0.66666700  0.33333300  0.75000000
   0.33333300  0.66666700  0.64938503
   0.66666700  0.33333300  0.14938503
   0.66666700  0.33333300  0.35061497
   0.33333300  0.66666700  0.85061497
unknown system                          
           1
     1.580012   -2.736661   -0.000000
     1.580012    2.736661    0.000000
     0.000000   -0.000000    7.689047
   Li   O 
   4   4
Direct configuration=     4
  -0.00000000  0.00000000  0.00000000
  -0.00000000 -0.00000000  0.50000000
   0.33333300  0.66666700  0.25000000
   0.66666700  0.33333300  0.75000000
   0.33333300  0.66666700  0.64893460
   0.66666700  0.33333300  0.14893460
   0.66666700  0.33333300  0.35106540
   0.33333300  0.66666700  0.85106540
unknown system                          
           1
     1.581047   -2.738453   -0.000000
     1.581047    2.738453    0.000000
    -0.000000   -0.000000    7.686218
   Li   O 
   4   4
Direct configuration=     5
  -0.00000000  0.00000000  0.00000000
  -0.00000000 -0.00000000  0.50000000
   0.33333300  0.66666700  0.25000000
   0.66666700  0.33333300  0.75000000
   0.33333300  0.66666700  0.64914668
   0.66666700  0.33333300  0.14914668
   0.66666700  0.33333300  0.35085332
   0.33333300  0.66666700  0.85085332
