 running on   12 total cores
 distrk:  each k-point on   12 cores,    1 groups
 distr:  one band on    6 cores,    2 groups
 using from now: INCAR     
 vasp.6.1.2 22Jul20 (build Mar 20 2021 11:25:07) complex                        
  
 POSCAR found type information on POSCAR LiP 
 POSCAR found :  2 types and      16 ions
 scaLAPACK will be used
 LDA part: xc-table for Pade appr. of Perdew
 generate k-points for:    7    6    4
 POSCAR, INCAR and KPOINTS ok, starting setup
 FFT: planning ...
 WAVECAR not read
 entering main loop
       N       E                     dE             d eps       ncg     rms          rms(c)
DAV:   1     0.405858160853E+03    0.40586E+03   -0.26109E+04 10304   0.138E+03
DAV:   2    -0.378025049532E+01   -0.40964E+03   -0.37634E+03 11716   0.332E+02
DAV:   3    -0.553881570695E+02   -0.51608E+02   -0.50990E+02 14704   0.910E+01
DAV:   4    -0.631691422514E+02   -0.77810E+01   -0.77116E+01 18280   0.342E+01
DAV:   5    -0.638587034157E+02   -0.68956E+00   -0.68929E+00 14728   0.770E+00    0.217E+01
DAV:   6    -0.651692187690E+02   -0.13105E+01   -0.27990E+00 13650   0.674E+00    0.116E+01
DAV:   7    -0.664559066545E+02   -0.12867E+01   -0.74704E-01 12484   0.429E+00    0.631E+00
DAV:   8    -0.666825746028E+02   -0.22667E+00   -0.65191E-01 13396   0.306E+00    0.130E+00
DAV:   9    -0.667155819172E+02   -0.33007E-01   -0.79249E-02 15504   0.115E+00    0.525E-01
DAV:  10    -0.667197698051E+02   -0.41879E-02   -0.64325E-03 13428   0.377E-01    0.215E-01
DAV:  11    -0.667212702162E+02   -0.15004E-02   -0.20609E-03 12552   0.212E-01    0.928E-02
DAV:  12    -0.667215236907E+02   -0.25347E-03   -0.61271E-04 13136   0.110E-01    0.395E-02
DAV:  13    -0.667215647256E+02   -0.41035E-04   -0.92097E-05 12992   0.514E-02    0.205E-02
DAV:  14    -0.667215752995E+02   -0.10574E-04   -0.19289E-05  9136   0.253E-02    0.665E-03
DAV:  15    -0.667215770177E+02   -0.17181E-05   -0.42004E-06  7168   0.122E-02
   1 F= -.66721577E+02 E0= -.66721577E+02  d E =0.000000E+00  mag=    -0.0002
