 running on    8 total cores
 distrk:  each k-point on    8 cores,    1 groups
 distr:  one band on    1 cores,    8 groups
 using from now: INCAR     
 vasp.6.1.2 22Jul20 (build Mar 20 2021 11:25:07) complex                        
  
 POSCAR found type information on POSCAR LiP 
 POSCAR found :  2 types and      16 ions
 scaLAPACK will be used
 -----------------------------------------------------------------------------
|                                                                             |
|           W    W    AA    RRRRR   N    N  II  N    N   GGGG   !!!           |
|           W    W   A  A   R    R  NN   N  II  NN   N  G    G  !!!           |
|           W    W  A    A  R    R  N N  N  II  N N  N  G       !!!           |
|           W WW W  AAAAAA  RRRRR   N  N N  II  N  N N  G  GGG   !            |
|           WW  WW  A    A  R   R   N   NN  II  N   NN  G    G                |
|           W    W  A    A  R    R  N    N  II  N    N   GGGG   !!!           |
|                                                                             |
|     The value NCORE = 6 specified in the INCAR file was overwritten,        |
|     because it was not compatible with the 8 processes available:           |
|     NCORE = 1                                                               |
|     was used instead, please check that this makes sense for your           |
|     machine.                                                                |
|                                                                             |
 -----------------------------------------------------------------------------

 -----------------------------------------------------------------------------
|                                                                             |
|           W    W    AA    RRRRR   N    N  II  N    N   GGGG   !!!           |
|           W    W   A  A   R    R  NN   N  II  NN   N  G    G  !!!           |
|           W    W  A    A  R    R  N N  N  II  N N  N  G       !!!           |
|           W WW W  AAAAAA  RRRRR   N  N N  II  N  N N  G  GGG   !            |
|           WW  WW  A    A  R   R   N   NN  II  N   NN  G    G                |
|           W    W  A    A  R    R  N    N  II  N    N   GGGG   !!!           |
|                                                                             |
|     For optimal performance we recommend to set                             |
|       NCORE = 4 - approx SQRT(number of cores).                             |
|     NCORE specifies how many cores store one orbital (NPAR=cpu/NCORE).      |
|     This setting can greatly improve the performance of VASP for DFT.       |
|     The default, NCORE=1 might be grossly inefficient on modern             |
|     multi-core architectures or massively parallel machines. Do your        |
|     own testing!!!!                                                         |
|     Unfortunately you need to use the default for GW and RPA                |
|     calculations (for HF NCORE is supported but not extensively tested      |
|     yet).                                                                   |
|                                                                             |
 -----------------------------------------------------------------------------

 LDA part: xc-table for Pade appr. of Perdew
 generate k-points for:    6    6    4
 POSCAR, INCAR and KPOINTS ok, starting setup
 FFT: planning ...
 WAVECAR not read
 entering main loop
       N       E                     dE             d eps       ncg     rms          rms(c)
DAV:   1     0.394530892525E+03    0.39453E+03   -0.25694E+04 14592   0.131E+03
DAV:   2    -0.437464836196E+01   -0.39891E+03   -0.36554E+03 16264   0.314E+02
DAV:   3    -0.559922174431E+02   -0.51618E+02   -0.50945E+02 20904   0.879E+01
DAV:   4    -0.634198374233E+02   -0.74276E+01   -0.73514E+01 25896   0.325E+01
DAV:   5    -0.641285078466E+02   -0.70867E+00   -0.70835E+00 20312   0.737E+00    0.210E+01
DAV:   6    -0.654682565931E+02   -0.13397E+01   -0.27958E+00 19488   0.646E+00    0.112E+01
DAV:   7    -0.667461959084E+02   -0.12779E+01   -0.71610E-01 17840   0.406E+00    0.587E+00
DAV:   8    -0.669809766931E+02   -0.23478E+00   -0.60948E-01 18968   0.285E+00    0.126E+00
DAV:   9    -0.670117649537E+02   -0.30788E-01   -0.79655E-02 21832   0.109E+00    0.493E-01
DAV:  10    -0.670156518447E+02   -0.38869E-02   -0.64690E-03 18768   0.368E-01    0.207E-01
DAV:  11    -0.670171097972E+02   -0.14580E-02   -0.18359E-03 18248   0.200E-01    0.958E-02
DAV:  12    -0.670173867499E+02   -0.27695E-03   -0.59572E-04 18488   0.989E-02    0.405E-02
DAV:  13    -0.670174321604E+02   -0.45410E-04   -0.92325E-05 17064   0.498E-02    0.205E-02
DAV:  14    -0.670174454721E+02   -0.13312E-04   -0.29067E-05 14848   0.273E-02    0.587E-03
DAV:  15    -0.670174470039E+02   -0.15319E-05   -0.40900E-06 10640   0.125E-02
   1 F= -.67017447E+02 E0= -.67017447E+02  d E =0.000000E+00  mag=    -0.0003
