       N       E                     dE             d eps       ncg     rms          rms(c)
DAV:   1     0.539714720036E+00    0.53971E+00   -0.71555E+02 15702   0.351E+02
DAV:   2    -0.152221591412E+01   -0.20619E+01   -0.20211E+01 21858   0.480E+01
DAV:   3    -0.159098852724E+01   -0.68773E-01   -0.68433E-01 19248   0.611E+00
DAV:   4    -0.159235079993E+01   -0.13623E-02   -0.13619E-02 22668   0.721E-01
DAV:   5    -0.159235747808E+01   -0.66782E-05   -0.66833E-05 20238   0.410E-02    0.545E+00
RMM:   6    -0.182148254655E+01   -0.22913E+00   -0.59398E-02 18716   0.230E+00    0.260E+00
RMM:   7    -0.189314358962E+01   -0.71661E-01   -0.18006E-02 17617   0.141E+00    0.160E-01
RMM:   8    -0.189456284477E+01   -0.14193E-02   -0.82922E-03 19428   0.845E-01    0.921E-02
RMM:   9    -0.189488230132E+01   -0.31946E-03   -0.23747E-03 23579   0.455E-01    0.347E-02
RMM:  10    -0.189521827268E+01   -0.33597E-03   -0.13214E-03 21095   0.346E-01    0.284E-02
RMM:  11    -0.189527125825E+01   -0.52986E-04   -0.29197E-04 23600   0.143E-01    0.229E-02
RMM:  12    -0.189528330053E+01   -0.12042E-04   -0.13248E-04 22143   0.108E-01    0.870E-03
RMM:  13    -0.189529567566E+01   -0.12375E-04   -0.39942E-05 21554   0.614E-02    0.660E-03
RMM:  14    -0.189529811299E+01   -0.24373E-05   -0.14859E-05 15053   0.380E-02
   1 F= -.18952981E+01 E0= -.18952981E+01  d E =0.000000E+00  mag=    -0.0001
