 vasp.5.4.4.18Apr17-6-g9f103f2a35 (build Aug 12 2020 11:57:02) complex          
  
 executed on             LinuxIFC date 2021.02.02  18:40:22
 running on   24 total cores
 distrk:  each k-point on   24 cores,    1 groups
 distr:  one band on NCORES_PER_BAND=   6 cores,    4 groups


--------------------------------------------------------------------------------------------------------


 INCAR:
 POTCAR:    PAW_PBE Li_sv 10Sep2004               
 POTCAR:    PAW_PBE P 06Sep2000                   
 POTCAR:    PAW_PBE Li_sv 10Sep2004               
   VRHFIN =Li: 1s2s2p                                                           
   LEXCH  = PE                                                                  
   EATOM  =   202.7858 eV,   14.9043 Ry                                         
                                                                                
   TITEL  = PAW_PBE Li_sv 10Sep2004                                             
   LULTRA =        F    use ultrasoft PP ?                                      
   IUNSCR =        0    unscreen: 0-lin 1-nonlin 2-no                           
   RPACOR =    0.000    partial core radius                                     
   POMASS =    7.010; ZVAL   =    3.000    mass and valenz                      
   RCORE  =    1.700    outmost cutoff radius                                   
   RWIGS  =    2.050; RWIGS  =    1.085    wigner-seitz radius (au A)           
   ENMAX  =  499.034; ENMIN  =  374.276 eV                                      
   ICORE  =        2    local potential                                         
   LCOR   =        T    correct aug charges                                     
   LPAW   =        T    paw PP                                                  
   EAUG   =  628.945                                                            
   RMAX   =    1.732    core radius for proj-oper                               
   RAUG   =    1.300    factor for augmentation sphere                          
   RDEP   =    1.728    radius for radial grids                                 
   RDEPT  =    1.329    core radius for aug-charge                              
                                                                                
   Atomic configuration                                                         
    4 entries                                                                   
     n  l   j            E        occ.                                          
     1  0  0.50       -51.8549   2.0000                                         
     2  0  0.50        -2.8742   1.0000                                         
     2  1  0.50        -1.3606   0.0000                                         
     3  2  1.50        -1.3606   0.0000                                         
   Description                                                                  
     l       E           TYP  RCUT    TYP  RCUT                                 
     0    -51.8548813     23  1.400                                             
     0     -2.8742052     23  1.700                                             
     1     -1.3605826     23  1.400                                             
     2     -1.3605826     23  1.400                                             
  local pseudopotential read in
  atomic valenz-charges read in
  non local Contribution for L=           0  read in
    real space projection operators read in
  non local Contribution for L=           0  read in
    real space projection operators read in
  non local Contribution for L=           1  read in
    real space projection operators read in
    PAW grid and wavefunctions read in
 
   number of l-projection  operators is LMAX  =           3
   number of lm-projection operators is LMMAX =           5
 
 POTCAR:    PAW_PBE P 06Sep2000                   
   VRHFIN =P : s2p3                                                             
   LEXCH  = PE                                                                  
   EATOM  =   176.0430 eV,   12.9388 Ry                                         
                                                                                
   TITEL  = PAW_PBE P 06Sep2000                                                 
   LULTRA =        F    use ultrasoft PP ?                                      
   IUNSCR =        1    unscreen: 0-lin 1-nonlin 2-no                           
   RPACOR =    1.500    partial core radius                                     
   POMASS =   30.974; ZVAL   =    5.000    mass and valenz                      
   RCORE  =    1.900    outmost cutoff radius                                   
   RWIGS  =    2.330; RWIGS  =    1.233    wigner-seitz radius (au A)           
   ENMAX  =  255.040; ENMIN  =  191.280 eV                                      
   ICORE  =        2    local potential                                         
   LCOR   =        T    correct aug charges                                     
   LPAW   =        T    paw PP                                                  
   EAUG   =  342.924                                                            
   DEXC   =    0.000                                                            
   RMAX   =    1.935    core radius for proj-oper                               
   RAUG   =    1.300    factor for augmentation sphere                          
   RDEP   =    1.931    radius for radial grids                                 
   RDEPT  =    1.794    core radius for aug-charge                              
                                                                                
   Atomic configuration                                                         
    6 entries                                                                   
     n  l   j            E        occ.                                          
     1  0  0.50     -2084.0982   2.0000                                         
     2  0  0.50      -173.9859   2.0000                                         
     2  1  1.50      -124.4865   6.0000                                         
     3  0  0.50       -13.9692   2.0000                                         
     3  1  0.50        -5.5067   3.0000                                         
     3  2  1.50        -5.4423   0.0000                                         
   Description                                                                  
     l       E           TYP  RCUT    TYP  RCUT                                 
     0    -13.9691527     23  1.900                                             
     0    -11.7794650     23  1.900                                             
     1     -5.5066937     23  1.900                                             
     1     -0.2556953     23  1.900                                             
     2     -5.4423304     23  1.900                                             
  local pseudopotential read in
  partial core-charges read in
  partial kinetic energy density read in
  atomic valenz-charges read in
  non local Contribution for L=           0  read in
    real space projection operators read in
  non local Contribution for L=           0  read in
    real space projection operators read in
  non local Contribution for L=           1  read in
    real space projection operators read in
  non local Contribution for L=           1  read in
    real space projection operators read in
    PAW grid and wavefunctions read in
 
   number of l-projection  operators is LMAX  =           4
   number of lm-projection operators is LMMAX =           8
 
 Optimization of the real space projectors (new method)

 maximal supplied QI-value         = 22.11
 optimisation between [QCUT,QGAM] = [ 11.50, 23.22] = [ 37.02,150.92] Ry 
 Optimized for a Real-space Cutoff    1.08 Angstroem

   l    n(q)    QCUT    max X(q) W(low)/X(q) W(high)/X(q)  e(spline) 
   0      7    11.497    10.506    0.36E-04    0.62E-04    0.14E-07
   0      7    11.497     8.367    0.65E-04    0.14E-03    0.28E-07
   1      7    11.497     8.983    0.21E-03    0.43E-03    0.90E-07
 Optimization of the real space projectors (new method)

 maximal supplied QI-value         = 19.84
 optimisation between [QCUT,QGAM] = [ 11.51, 23.22] = [ 37.09,150.92] Ry 
 Optimized for a Real-space Cutoff    1.21 Angstroem

   l    n(q)    QCUT    max X(q) W(low)/X(q) W(high)/X(q)  e(spline) 
   0      8    11.508   160.924    0.96E-04    0.17E-03    0.52E-07
   0      8    11.508   130.086    0.95E-04    0.17E-03    0.51E-07
   1      8    11.508    74.434    0.16E-03    0.74E-04    0.91E-07
   1      8    11.508    49.120    0.16E-03    0.71E-04    0.89E-07
  PAW_PBE Li_sv 10Sep2004               :
 energy of atom  1       EATOM= -202.7858
 kinetic energy error for atom=    0.0130 (will be added to EATOM!!)
  PAW_PBE P 06Sep2000                   :
 energy of atom  2       EATOM= -176.0430
 kinetic energy error for atom=    0.0011 (will be added to EATOM!!)
 
 
 POSCAR: Li8 P8                                  
  positions in direct lattice
  No initial velocities read in
 exchange correlation table for  LEXCH =        8
   RHO(1)=    0.500       N(1)  =     2000
   RHO(2)=  100.500       N(2)  =     4000
 


--------------------------------------------------------------------------------------------------------


 ion  position               nearest neighbor table
   1  0.612  0.217  0.671-   9 2.58  10 2.64   9 2.64  16 2.71  13 2.75
   2  0.112  0.783  0.829-  10 2.58   9 2.64  10 2.64  15 2.71  14 2.75
   3  0.388  0.783  0.329-  11 2.58  12 2.64  11 2.64  14 2.71  15 2.75
   4  0.888  0.217  0.171-  12 2.58  11 2.64  12 2.64  13 2.71  16 2.75
   5  0.342  0.226  0.970-  13 2.58  13 2.60  10 2.68  12 2.72   9 2.76  15 2.77
   6  0.842  0.774  0.530-  14 2.58  14 2.60   9 2.68  11 2.72  10 2.76  16 2.77
   7  0.658  0.774  0.030-  15 2.58  15 2.60  12 2.68  10 2.72  11 2.76  13 2.77
   8  0.158  0.226  0.470-  16 2.58  16 2.60  11 2.68   9 2.72  12 2.76  14 2.77
   9  0.105  0.317  0.707-  14 2.22  13 2.24   1 2.58   2 2.64   1 2.64   6 2.68   8 2.72   5 2.76

  10  0.605  0.683  0.793-  13 2.22  14 2.24   2 2.58   1 2.64   2 2.64   5 2.68   7 2.72   6 2.76

  11  0.895  0.683  0.293-  16 2.22  15 2.24   3 2.58   4 2.64   3 2.64   8 2.68   6 2.72   7 2.76

  12  0.395  0.317  0.207-  15 2.22  16 2.24   4 2.58   3 2.64   4 2.64   7 2.68   5 2.72   8 2.76

  13  0.844  0.303  0.888-  10 2.22   9 2.24   5 2.58   5 2.60   4 2.71   1 2.75   7 2.77
  14  0.344  0.697  0.612-   9 2.22  10 2.24   6 2.58   6 2.60   3 2.71   2 2.75   8 2.77
  15  0.156  0.697  0.112-  12 2.22  11 2.24   7 2.58   7 2.60   2 2.71   3 2.75   5 2.77
  16  0.656  0.303  0.388-  11 2.22  12 2.24   8 2.58   8 2.60   1 2.71   4 2.75   6 2.77
 
  LATTYP: Found a simple monoclinic cell.
 ALAT       =    10.2507507637
 B/A-ratio  =     0.4848800946
 C/A-ratio  =     1.3463992353
 COS(beta)  =    -0.9339720243
  
  Lattice vectors:
  
 A1 = (   0.0000000000,  -4.8369850000,  -9.0377800000)
 A2 = (  -4.9703850000,   0.0000000000,   0.0000000000)
 A3 = (   0.0000000000,  10.4308570000,   9.0377800000)


Analysis of symmetry for initial positions (statically):
=====================================================================
 Subroutine PRICEL returns:
 Original cell was already a primitive cell.
 

 Routine SETGRP: Setting up the symmetry group for a 
 simple monoclinic supercell.


 Subroutine GETGRP returns: Found  4 space group operations
 (whereof  2 operations were pure point group operations)
 out of a pool of  4 trial point group operations.


The static configuration has the point symmetry S_2 .
 The point group associated with its full space group is C_2h.


Analysis of symmetry for dynamics (positions and initial velocities):
=====================================================================
 Subroutine PRICEL returns:
 Original cell was already a primitive cell.
 

 Routine SETGRP: Setting up the symmetry group for a 
 simple monoclinic supercell.


 Subroutine GETGRP returns: Found  4 space group operations
 (whereof  2 operations were pure point group operations)
 out of a pool of  4 trial point group operations.


The dynamic configuration has the point symmetry S_2 .
 The point group associated with its full space group is C_2h.


Analysis of structural, dynamic, and magnetic symmetry:
=====================================================================
 Subroutine PRICEL returns:
 Original cell was already a primitive cell.
 

 Routine SETGRP: Setting up the symmetry group for a 
 simple monoclinic supercell.


 Subroutine GETGRP returns: Found  4 space group operations
 (whereof  2 operations were pure point group operations)
 out of a pool of  4 trial point group operations.


The magnetic configuration has the point symmetry S_2 .
 The point group associated with its full space group is C_2h.


 Subroutine INISYM returns: Found  4 space group operations
 (whereof  2 operations are pure point group operations),
 and found     1 'primitive' translations

 
 
 KPOINTS: Fully automatic kpoint scheme           

Automatic generation of k-mesh.
 generate k-points for:    6    6    4
Space group operators:
 irot       det(A)        alpha          n_x          n_y          n_z        tau_x        tau_y        tau_z
    1     1.000000     0.000000     1.000000     0.000000     0.000000     0.000000     0.000000     0.000000
    2    -1.000000     0.000000     1.000000     0.000000     0.000000     0.000000     0.000000     0.000000
    3     1.000000   180.000000     1.000000     0.000000     0.000000    -0.500000     0.000000    -0.500000
    4    -1.000000   180.000000     1.000000     0.000000     0.000000    -0.500000     0.000000    -0.500000
 
 Subroutine IBZKPT returns following result:
 ===========================================
 
 Found     56 irreducible k-points:
 
 Following reciprocal coordinates:
            Coordinates               Weight
  0.000000  0.000000  0.000000      1.000000
  0.166667  0.000000  0.000000      2.000000
  0.333333  0.000000  0.000000      2.000000
  0.500000  0.000000  0.000000      1.000000
  0.000000  0.166667  0.000000      2.000000
  0.166667  0.166667  0.000000      4.000000
  0.333333  0.166667  0.000000      4.000000
  0.500000  0.166667  0.000000      2.000000
  0.000000  0.333333 -0.000000      2.000000
  0.166667  0.333333 -0.000000      4.000000
  0.333333  0.333333 -0.000000      4.000000
  0.500000  0.333333 -0.000000      2.000000
  0.000000  0.500000  0.000000      1.000000
  0.166667  0.500000  0.000000      2.000000
  0.333333  0.500000  0.000000      2.000000
  0.500000  0.500000  0.000000      1.000000
  0.000000  0.000000  0.250000      2.000000
  0.166667  0.000000  0.250000      4.000000
  0.333333  0.000000  0.250000      4.000000
  0.500000  0.000000  0.250000      2.000000
  0.000000  0.166667  0.250000      2.000000
  0.166667  0.166667  0.250000      4.000000
  0.333333  0.166667  0.250000      4.000000
  0.500000  0.166667  0.250000      2.000000
  0.000000  0.333333  0.250000      2.000000
  0.166667  0.333333  0.250000      4.000000
  0.333333  0.333333  0.250000      4.000000
  0.500000  0.333333  0.250000      2.000000
  0.000000  0.500000  0.250000      2.000000
  0.166667  0.500000  0.250000      4.000000
  0.333333  0.500000  0.250000      4.000000
  0.500000  0.500000  0.250000      2.000000
  0.000000 -0.333333  0.250000      2.000000
  0.166667 -0.333333  0.250000      4.000000
  0.333333 -0.333333  0.250000      4.000000
  0.500000 -0.333333  0.250000      2.000000
  0.000000 -0.166667  0.250000      2.000000
  0.166667 -0.166667  0.250000      4.000000
  0.333333 -0.166667  0.250000      4.000000
  0.500000 -0.166667  0.250000      2.000000
  0.000000  0.000000  0.500000      1.000000
  0.166667  0.000000  0.500000      2.000000
  0.333333  0.000000  0.500000      2.000000
  0.500000  0.000000  0.500000      1.000000
  0.000000  0.166667  0.500000      2.000000
  0.166667  0.166667  0.500000      4.000000
  0.333333  0.166667  0.500000      4.000000
  0.500000  0.166667  0.500000      2.000000
  0.000000  0.333333  0.500000      2.000000
  0.166667  0.333333  0.500000      4.000000
  0.333333  0.333333  0.500000      4.000000
  0.500000  0.333333  0.500000      2.000000
  0.000000  0.500000  0.500000      1.000000
  0.166667  0.500000  0.500000      2.000000
  0.333333  0.500000  0.500000      2.000000
  0.500000  0.500000  0.500000      1.000000
 
 Following cartesian coordinates:
            Coordinates               Weight
  0.000000  0.000000  0.000000      1.000000
  0.033532  0.000000  0.000000      2.000000
  0.067064  0.000000  0.000000      2.000000
  0.100596  0.000000  0.000000      1.000000
  0.000000  0.029795 -0.015946      2.000000
  0.033532  0.029795 -0.015946      4.000000
  0.067064  0.029795 -0.015946      4.000000
  0.100596  0.029795 -0.015946      2.000000
  0.000000  0.059589 -0.031892      2.000000
  0.033532  0.059589 -0.031892      4.000000
  0.067064  0.059589 -0.031892      4.000000
  0.100596  0.059589 -0.031892      2.000000
  0.000000  0.089384 -0.047838      1.000000
  0.033532  0.089384 -0.047838      2.000000
  0.067064  0.089384 -0.047838      2.000000
  0.100596  0.089384 -0.047838      1.000000
  0.000000  0.000000  0.027662      2.000000
  0.033532  0.000000  0.027662      4.000000
  0.067064  0.000000  0.027662      4.000000
  0.100596  0.000000  0.027662      2.000000
  0.000000  0.029795  0.011716      2.000000
  0.033532  0.029795  0.011716      4.000000
  0.067064  0.029795  0.011716      4.000000
  0.100596  0.029795  0.011716      2.000000
  0.000000  0.059589 -0.004230      2.000000
  0.033532  0.059589 -0.004230      4.000000
  0.067064  0.059589 -0.004230      4.000000
  0.100596  0.059589 -0.004230      2.000000
  0.000000  0.089384 -0.020176      2.000000
  0.033532  0.089384 -0.020176      4.000000
  0.067064  0.089384 -0.020176      4.000000
  0.100596  0.089384 -0.020176      2.000000
  0.000000 -0.059589  0.059553      2.000000
  0.033532 -0.059589  0.059553      4.000000
  0.067064 -0.059589  0.059553      4.000000
  0.100596 -0.059589  0.059553      2.000000
  0.000000 -0.029795  0.043608      2.000000
  0.033532 -0.029795  0.043608      4.000000
  0.067064 -0.029795  0.043608      4.000000
  0.100596 -0.029795  0.043608      2.000000
  0.000000  0.000000  0.055323      1.000000
  0.033532  0.000000  0.055323      2.000000
  0.067064  0.000000  0.055323      2.000000
  0.100596  0.000000  0.055323      1.000000
  0.000000  0.029795  0.039377      2.000000
  0.033532  0.029795  0.039377      4.000000
  0.067064  0.029795  0.039377      4.000000
  0.100596  0.029795  0.039377      2.000000
  0.000000  0.059589  0.023432      2.000000
  0.033532  0.059589  0.023432      4.000000
  0.067064  0.059589  0.023432      4.000000
  0.100596  0.059589  0.023432      2.000000
  0.000000  0.089384  0.007486      1.000000
  0.033532  0.089384  0.007486      2.000000
  0.067064  0.089384  0.007486      2.000000
  0.100596  0.089384  0.007486      1.000000
 
 TETIRR: Found    432 inequivalent tetrahedra from      864


--------------------------------------------------------------------------------------------------------




 Dimension of arrays:
   k-points           NKPTS =     56   k-points in BZ     NKDIM =     56   number of bands    NBANDS=     44
   number of dos      NEDOS =    301   number of ions     NIONS =     16
   non local maximal  LDIM  =      4   non local SUM 2l+1 LMDIM =      8
   total plane-waves  NPLWV = 134400
   max r-space proj   IRMAX =   4026   max aug-charges    IRDMAX=  16474
   dimension x,y,z NGX =    40 NGY =   42 NGZ =   80
   dimension x,y,z NGXF=    80 NGYF=   84 NGZF=  160
   support grid    NGXF=    80 NGYF=   84 NGZF=  160
   ions per type =               8   8
   NGX,Y,Z   is equivalent  to a cutoff of  13.38, 12.48, 12.97 a.u.
   NGXF,Y,Z  is equivalent  to a cutoff of  26.76, 24.96, 25.95 a.u.

 SYSTEM =  unknown system                          
 POSCAR =  Li8 P8                                  

 Startparameter for this run:
   NWRITE =      2    write-flag & timer
   PREC   = accura    normal or accurate (medium, high low for compatibility)
   ISTART =      0    job   : 0-new  1-cont  2-samecut
   ICHARG =      2    charge: 1-file 2-atom 10-const
   ISPIN  =      2    spin polarized calculation?
   LNONCOLLINEAR =      F non collinear calculations
   LSORBIT =      F    spin-orbit coupling
   INIWAV =      1    electr: 0-lowe 1-rand  2-diag
   LASPH  =      T    aspherical Exc in radial PAW
   METAGGA=      F    non-selfconsistent MetaGGA calc.

 Electronic Relaxation 1
   ENCUT  =  520.0 eV  38.22 Ry    6.18 a.u.   9.24 10.40 19.06*2*pi/ulx,y,z
   ENINI  =  520.0     initial cutoff
   ENAUG  =  628.9 eV  augmentation charge cutoff
   NELM   =    100;   NELMIN=  2; NELMDL= -5     # of ELM steps 
   EDIFF  = 0.1E-04   stopping-criterion for ELM
   LREAL  =      T    real-space projection
   NLSPLINE    = F    spline interpolate recip. space projectors
   LCOMPAT=      F    compatible to vasp.4.4
   GGA_COMPAT  = T    GGA compatible to vasp.4.4-vasp.4.6
   LMAXPAW     = -100 max onsite density
   LMAXMIX     =    2 max onsite mixed and CHGCAR
   VOSKOWN=      0    Vosko Wilk Nusair interpolation
   ROPT   =   -0.00025  -0.00025
 Ionic relaxation
   EDIFFG = 0.1E-03   stopping-criterion for IOM
   NSW    =     99    number of steps for IOM
   NBLOCK =      1;   KBLOCK =     99    inner block; outer block 
   IBRION =      2    ionic relax: 0-MD 1-quasi-New 2-CG
   NFREE  =      1    steps in history (QN), initial steepest desc. (CG)
   ISIF   =      3    stress and relaxation
   IWAVPR =     11    prediction:  0-non 1-charg 2-wave 3-comb
   ISYM   =      2    0-nonsym 1-usesym 2-fastsym
   LCORR  =      T    Harris-Foulkes like correction to forces

   POTIM  = 0.5000    time-step for ionic-motion
   TEIN   =    0.0    initial temperature
   TEBEG  =    0.0;   TEEND  =   0.0 temperature during run
   SMASS  =  -3.00    Nose mass-parameter (am)
   estimated Nose-frequenzy (Omega)   =  0.10E-29 period in steps =****** mass=  -0.565E-27a.u.
   SCALEE = 1.0000    scale energy and forces
   NPACO  =    256;   APACO  = 16.0  distance and # of slots for P.C.
   PSTRESS=    0.0 pullay stress

  Mass of Ions in am
   POMASS =   7.01 30.97
  Ionic Valenz
   ZVAL   =   3.00  5.00
  Atomic Wigner-Seitz radii
   RWIGS  =  -1.00 -1.00
  virtual crystal weights 
   VCA    =   1.00  1.00
   NELECT =      64.0000    total number of electrons
   NUPDOWN=      -1.0000    fix difference up-down

 DOS related values:
   EMIN   =  10.00;   EMAX   =-10.00  energy-range for DOS
   EFERMI =   0.00
   ISMEAR =    -5;   SIGMA  =   0.05  broadening in eV -4-tet -1-fermi 0-gaus

 Electronic relaxation 2 (details)
   IALGO  =     68    algorithm
   LDIAG  =      T    sub-space diagonalisation (order eigenvalues)
   LSUBROT=      F    optimize rotation matrix (better conditioning)
   TURBO    =      0    0=normal 1=particle mesh
   IRESTART =      0    0=no restart 2=restart with 2 vectors
   NREBOOT  =      0    no. of reboots
   NMIN     =      0    reboot dimension
   EREF     =   0.00    reference energy to select bands
   IMIX   =      4    mixing-type and parameters
     AMIX     =   0.40;   BMIX     =  1.00
     AMIX_MAG =   1.60;   BMIX_MAG =  1.00
     AMIN     =   0.10
     WC   =   100.;   INIMIX=   1;  MIXPRE=   1;  MAXMIX= -45

 Intra band minimization:
   WEIMIN = 0.0010     energy-eigenvalue tresh-hold
   EBREAK =  0.57E-07  absolut break condition
   DEPER  =   0.30     relativ break condition  

   TIME   =   0.40     timestep for ELM

  volume/ion in A,a.u.               =      15.71       105.98
  Fermi-wavevector in a.u.,A,eV,Ry     =   1.037720  1.961006 14.651599  1.076862
  Thomas-Fermi vector in A             =   2.172171
 
 Write flags
   LWAVE        =      F    write WAVECAR
   LDOWNSAMPLE  =      F    k-point downsampling of WAVECAR
   LCHARG       =      F    write CHGCAR
   LVTOT        =      F    write LOCPOT, total local potential
   LVHAR        =      F    write LOCPOT, Hartree potential only
   LELF         =      F    write electronic localiz. function (ELF)
   LORBIT       =     11    0 simple, 1 ext, 2 COOP (PROOUT), +10 PAW based schemes


 Dipole corrections
   LMONO  =      F    monopole corrections only (constant potential shift)
   LDIPOL =      F    correct potential (dipole corrections)
   IDIPOL =      0    1-x, 2-y, 3-z, 4-all directions 
   EPSILON=  1.0000000 bulk dielectric constant

 Exchange correlation treatment:
   GGA     =    --    GGA type
   LEXCH   =     8    internal setting for exchange type
   VOSKOWN=      0    Vosko Wilk Nusair interpolation
   LHFCALC =     F    Hartree Fock is set to
   LHFONE  =     F    Hartree Fock one center treatment
   AEXX    =    0.0000 exact exchange contribution

 Linear response parameters
   LEPSILON=     F    determine dielectric tensor
   LRPA    =     F    only Hartree local field effects (RPA)
   LNABLA  =     F    use nabla operator in PAW spheres
   LVEL    =     F    velocity operator in full k-point grid
   LINTERFAST=   F  fast interpolation
   KINTER  =     0    interpolate to denser k-point grid
   CSHIFT  =0.1000    complex shift for real part using Kramers Kronig
   OMEGAMAX=  -1.0    maximum frequency
   DEG_THRESHOLD= 0.2000000E-02 threshold for treating states as degnerate
   RTIME   =   -0.100 relaxation time in fs
  (WPLASMAI=    0.000 imaginary part of plasma frequency in eV, 0.658/RTIME)
   DFIELD  = 0.0000000 0.0000000 0.0000000 field for delta impulse in time
 
 Orbital magnetization related:
   ORBITALMAG=     F  switch on orbital magnetization
   LCHIMAG   =     F  perturbation theory with respect to B field
   DQ        =  0.001000  dq finite difference perturbation B field
   LLRAUG    =     F  two centre corrections for induced B field



--------------------------------------------------------------------------------------------------------


 conjugate gradient relaxation of ions
 charge density and potential will be updated during run
 spin polarized calculation
 RMM-DIIS sequential band-by-band and
  variant of blocked Davidson during initial phase
 perform sub-space diagonalisation
    before iterative eigenvector-optimisation
 modified Broyden-mixing scheme, WC =      100.0
 initial mixing is a Kerker type mixing with AMIX =  0.4000 and BMIX =      1.0000
 Hartree-type preconditioning will be used
 using additional bands           12
 real space projection scheme for non local part
 use partial core corrections
 calculate Harris-corrections to forces 
   (improved forces if not selfconsistent)
 use gradient corrections 
 use of overlap-Matrix (Vanderbilt PP)
 Fermi weights with tetrahedron method with Bloechl corrections


--------------------------------------------------------------------------------------------------------


  energy-cutoff  :      520.00
  volume of cell :      251.28
      direct lattice vectors                 reciprocal lattice vectors
     4.970385000  0.000000000  0.000000000     0.201191658  0.000000000  0.000000000
     0.000000000  5.593872000  0.000000000     0.000000000  0.178767051 -0.095675436
     0.000000000  4.836985000  9.037780000     0.000000000  0.000000000  0.110646641

  length of vectors
     4.970385000  5.593872000 10.250750764     0.201191658  0.202759581  0.110646641


 
 k-points in units of 2pi/SCALE and weight: Fully automatic kpoint scheme           
   0.00000000  0.00000000  0.00000000       0.007
   0.03353194  0.00000000  0.00000000       0.014
   0.06706389  0.00000000  0.00000000       0.014
   0.10059583  0.00000000  0.00000000       0.007
   0.00000000  0.02979451 -0.01594591       0.014
   0.03353194  0.02979451 -0.01594591       0.028
   0.06706389  0.02979451 -0.01594591       0.028
   0.10059583  0.02979451 -0.01594591       0.014
   0.00000000  0.05958902 -0.03189181       0.014
   0.03353194  0.05958902 -0.03189181       0.028
   0.06706389  0.05958902 -0.03189181       0.028
   0.10059583  0.05958902 -0.03189181       0.014
   0.00000000  0.08938353 -0.04783772       0.007
   0.03353194  0.08938353 -0.04783772       0.014
   0.06706389  0.08938353 -0.04783772       0.014
   0.10059583  0.08938353 -0.04783772       0.007
   0.00000000  0.00000000  0.02766166       0.014
   0.03353194  0.00000000  0.02766166       0.028
   0.06706389  0.00000000  0.02766166       0.028
   0.10059583  0.00000000  0.02766166       0.014
   0.00000000  0.02979451  0.01171575       0.014
   0.03353194  0.02979451  0.01171575       0.028
   0.06706389  0.02979451  0.01171575       0.028
   0.10059583  0.02979451  0.01171575       0.014
   0.00000000  0.05958902 -0.00423015       0.014
   0.03353194  0.05958902 -0.00423015       0.028
   0.06706389  0.05958902 -0.00423015       0.028
   0.10059583  0.05958902 -0.00423015       0.014
   0.00000000  0.08938353 -0.02017606       0.014
   0.03353194  0.08938353 -0.02017606       0.028
   0.06706389  0.08938353 -0.02017606       0.028
   0.10059583  0.08938353 -0.02017606       0.014
   0.00000000 -0.05958902  0.05955347       0.014
   0.03353194 -0.05958902  0.05955347       0.028
   0.06706389 -0.05958902  0.05955347       0.028
   0.10059583 -0.05958902  0.05955347       0.014
   0.00000000 -0.02979451  0.04360757       0.014
   0.03353194 -0.02979451  0.04360757       0.028
   0.06706389 -0.02979451  0.04360757       0.028
   0.10059583 -0.02979451  0.04360757       0.014
   0.00000000  0.00000000  0.05532332       0.007
   0.03353194  0.00000000  0.05532332       0.014
   0.06706389  0.00000000  0.05532332       0.014
   0.10059583  0.00000000  0.05532332       0.007
   0.00000000  0.02979451  0.03937741       0.014
   0.03353194  0.02979451  0.03937741       0.028
   0.06706389  0.02979451  0.03937741       0.028
   0.10059583  0.02979451  0.03937741       0.014
   0.00000000  0.05958902  0.02343151       0.014
   0.03353194  0.05958902  0.02343151       0.028
   0.06706389  0.05958902  0.02343151       0.028
   0.10059583  0.05958902  0.02343151       0.014
   0.00000000  0.08938353  0.00748560       0.007
   0.03353194  0.08938353  0.00748560       0.014
   0.06706389  0.08938353  0.00748560       0.014
   0.10059583  0.08938353  0.00748560       0.007
 
 k-points in reciprocal lattice and weights: Fully automatic kpoint scheme           
   0.00000000  0.00000000  0.00000000       0.007
   0.16666667  0.00000000  0.00000000       0.014
   0.33333333  0.00000000  0.00000000       0.014
   0.50000000  0.00000000  0.00000000       0.007
   0.00000000  0.16666667  0.00000000       0.014
   0.16666667  0.16666667  0.00000000       0.028
   0.33333333  0.16666667  0.00000000       0.028
   0.50000000  0.16666667  0.00000000       0.014
   0.00000000  0.33333333 -0.00000000       0.014
   0.16666667  0.33333333 -0.00000000       0.028
   0.33333333  0.33333333 -0.00000000       0.028
   0.50000000  0.33333333 -0.00000000       0.014
   0.00000000  0.50000000  0.00000000       0.007
   0.16666667  0.50000000  0.00000000       0.014
   0.33333333  0.50000000  0.00000000       0.014
   0.50000000  0.50000000  0.00000000       0.007
   0.00000000  0.00000000  0.25000000       0.014
   0.16666667  0.00000000  0.25000000       0.028
   0.33333333  0.00000000  0.25000000       0.028
   0.50000000  0.00000000  0.25000000       0.014
   0.00000000  0.16666667  0.25000000       0.014
   0.16666667  0.16666667  0.25000000       0.028
   0.33333333  0.16666667  0.25000000       0.028
   0.50000000  0.16666667  0.25000000       0.014
   0.00000000  0.33333333  0.25000000       0.014
   0.16666667  0.33333333  0.25000000       0.028
   0.33333333  0.33333333  0.25000000       0.028
   0.50000000  0.33333333  0.25000000       0.014
   0.00000000  0.50000000  0.25000000       0.014
   0.16666667  0.50000000  0.25000000       0.028
   0.33333333  0.50000000  0.25000000       0.028
   0.50000000  0.50000000  0.25000000       0.014
   0.00000000 -0.33333333  0.25000000       0.014
   0.16666667 -0.33333333  0.25000000       0.028
   0.33333333 -0.33333333  0.25000000       0.028
   0.50000000 -0.33333333  0.25000000       0.014
   0.00000000 -0.16666667  0.25000000       0.014
   0.16666667 -0.16666667  0.25000000       0.028
   0.33333333 -0.16666667  0.25000000       0.028
   0.50000000 -0.16666667  0.25000000       0.014
   0.00000000  0.00000000  0.50000000       0.007
   0.16666667  0.00000000  0.50000000       0.014
   0.33333333  0.00000000  0.50000000       0.014
   0.50000000  0.00000000  0.50000000       0.007
   0.00000000  0.16666667  0.50000000       0.014
   0.16666667  0.16666667  0.50000000       0.028
   0.33333333  0.16666667  0.50000000       0.028
   0.50000000  0.16666667  0.50000000       0.014
   0.00000000  0.33333333  0.50000000       0.014
   0.16666667  0.33333333  0.50000000       0.028
   0.33333333  0.33333333  0.50000000       0.028
   0.50000000  0.33333333  0.50000000       0.014
   0.00000000  0.50000000  0.50000000       0.007
   0.16666667  0.50000000  0.50000000       0.014
   0.33333333  0.50000000  0.50000000       0.014
   0.50000000  0.50000000  0.50000000       0.007
 
 position of ions in fractional coordinates (direct lattice) 
   0.61175300  0.21700800  0.67070000
   0.11175300  0.78299200  0.82930000
   0.38824700  0.78299200  0.32930000
   0.88824700  0.21700800  0.17070000
   0.34168400  0.22576800  0.97021400
   0.84168400  0.77423200  0.52978600
   0.65831600  0.77423200  0.02978600
   0.15831600  0.22576800  0.47021400
   0.10509600  0.31664500  0.70708400
   0.60509600  0.68335500  0.79291600
   0.89490400  0.68335500  0.29291600
   0.39490400  0.31664500  0.20708400
   0.84397300  0.30318200  0.88825800
   0.34397300  0.69681800  0.61174200
   0.15602700  0.69681800  0.11174200
   0.65602700  0.30318200  0.38825800
 
 position of ions in cartesian coordinates  (Angst):
   3.04064793  4.45808081  6.06163905
   0.55545543  8.39126869  7.49503095
   1.92973707  5.97277619  2.97614095
   4.41492957  2.03958831  1.54274905
   1.69830103  5.95582786  8.76858068
   4.18349353  6.89352164  4.78808932
   3.27208397  4.47502914  0.26919932
   0.78689147  3.53733536  4.24969068
   0.52236758  5.19142630  6.39046963
   3.00756008  7.65792320  7.16620037
   4.44801742  5.23943070  2.64731037
   1.96282492  2.77293380  1.87157963
   4.19487074  5.99245192  8.02788039
   1.70967824  6.85689758  5.52878961
   0.77551426  4.43840508  1.00989961
   3.26070676  3.57395942  3.50899039
 


--------------------------------------------------------------------------------------------------------


 k-point  1 :   0.0000 0.0000 0.0000  plane waves:    6779
 k-point  2 :   0.1667 0.0000 0.0000  plane waves:    6757
 k-point  3 :   0.3333 0.0000 0.0000  plane waves:    6778
 k-point  4 :   0.5000 0.0000 0.0000  plane waves:    6774
 k-point  5 :   0.0000 0.1667 0.0000  plane waves:    6750
 k-point  6 :   0.1667 0.1667 0.0000  plane waves:    6759
 k-point  7 :   0.3333 0.1667 0.0000  plane waves:    6773
 k-point  8 :   0.5000 0.1667 0.0000  plane waves:    6776
 k-point  9 :   0.0000 0.3333-0.0000  plane waves:    6781
 k-point 10 :   0.1667 0.3333-0.0000  plane waves:    6760
 k-point 11 :   0.3333 0.3333-0.0000  plane waves:    6753
 k-point 12 :   0.5000 0.3333-0.0000  plane waves:    6762
 k-point 13 :   0.0000 0.5000 0.0000  plane waves:    6774
 k-point 14 :   0.1667 0.5000 0.0000  plane waves:    6764
 k-point 15 :   0.3333 0.5000 0.0000  plane waves:    6760
 k-point 16 :   0.5000 0.5000 0.0000  plane waves:    6756
 k-point 17 :   0.0000 0.0000 0.2500  plane waves:    6774
 k-point 18 :   0.1667 0.0000 0.2500  plane waves:    6775
 k-point 19 :   0.3333 0.0000 0.2500  plane waves:    6776
 k-point 20 :   0.5000 0.0000 0.2500  plane waves:    6790
 k-point 21 :   0.0000 0.1667 0.2500  plane waves:    6772
 k-point 22 :   0.1667 0.1667 0.2500  plane waves:    6757
 k-point 23 :   0.3333 0.1667 0.2500  plane waves:    6780
 k-point 24 :   0.5000 0.1667 0.2500  plane waves:    6776
 k-point 25 :   0.0000 0.3333 0.2500  plane waves:    6754
 k-point 26 :   0.1667 0.3333 0.2500  plane waves:    6761
 k-point 27 :   0.3333 0.3333 0.2500  plane waves:    6761
 k-point 28 :   0.5000 0.3333 0.2500  plane waves:    6760
 k-point 29 :   0.0000 0.5000 0.2500  plane waves:    6769
 k-point 30 :   0.1667 0.5000 0.2500  plane waves:    6766
 k-point 31 :   0.3333 0.5000 0.2500  plane waves:    6748
 k-point 32 :   0.5000 0.5000 0.2500  plane waves:    6756
 k-point 33 :   0.0000-0.3333 0.2500  plane waves:    6782
 k-point 34 :   0.1667-0.3333 0.2500  plane waves:    6763
 k-point 35 :   0.3333-0.3333 0.2500  plane waves:    6757
 k-point 36 :   0.5000-0.3333 0.2500  plane waves:    6778
 k-point 37 :   0.0000-0.1667 0.2500  plane waves:    6767
 k-point 38 :   0.1667-0.1667 0.2500  plane waves:    6768
 k-point 39 :   0.3333-0.1667 0.2500  plane waves:    6773
 k-point 40 :   0.5000-0.1667 0.2500  plane waves:    6788
 k-point 41 :   0.0000 0.0000 0.5000  plane waves:    6752
 k-point 42 :   0.1667 0.0000 0.5000  plane waves:    6782
 k-point 43 :   0.3333 0.0000 0.5000  plane waves:    6778
 k-point 44 :   0.5000 0.0000 0.5000  plane waves:    6800
 k-point 45 :   0.0000 0.1667 0.5000  plane waves:    6784
 k-point 46 :   0.1667 0.1667 0.5000  plane waves:    6783
 k-point 47 :   0.3333 0.1667 0.5000  plane waves:    6767
 k-point 48 :   0.5000 0.1667 0.5000  plane waves:    6770
 k-point 49 :   0.0000 0.3333 0.5000  plane waves:    6771
 k-point 50 :   0.1667 0.3333 0.5000  plane waves:    6766
 k-point 51 :   0.3333 0.3333 0.5000  plane waves:    6765
 k-point 52 :   0.5000 0.3333 0.5000  plane waves:    6764
 k-point 53 :   0.0000 0.5000 0.5000  plane waves:    6766
 k-point 54 :   0.1667 0.5000 0.5000  plane waves:    6748
 k-point 55 :   0.3333 0.5000 0.5000  plane waves:    6748
 k-point 56 :   0.5000 0.5000 0.5000  plane waves:    6740

 maximum and minimum number of plane-waves per node :      1164     1094

 maximum number of plane-waves:      6800
 maximum index in each direction: 
   IXMAX=    9   IYMAX=   10   IZMAX=   19
   IXMIN=   -9   IYMIN=  -10   IZMIN=  -19


 real space projection operators:
  total allocation   :       2778.81 KBytes
  max/ min on nodes  :        492.34        409.11


 parallel 3D FFT for wavefunctions:
    minimum data exchange during FFTs selected (reduces bandwidth)
 parallel 3D FFT for charge:
    minimum data exchange during FFTs selected (reduces bandwidth)


 total amount of memory used by VASP MPI-rank0    63714. kBytes
=======================================================================

   base      :      30000. kBytes
   nonlr-proj:       1683. kBytes
   fftplans  :       2440. kBytes
   grid      :       6234. kBytes
   one-center:         18. kBytes
   wavefun   :      23339. kBytes
 
     INWAV:  cpu time    0.0000: real time    0.0001
 Broyden mixing: mesh for mixing (old mesh)
   NGX = 19   NGY = 21   NGZ = 39
  (NGX  = 80   NGY  = 84   NGZ  =160)
  gives a total of  15561 points

 initial charge density was supplied:
 charge density of overlapping atoms calculated
 number of electron      64.0000000 magnetization       0.0000000
 keeping initial charge density in first step


--------------------------------------------------------------------------------------------------------


 Maximum index for non-local projection operator          734
 Maximum index for augmentation-charges         1309 (set IRDMAX)


--------------------------------------------------------------------------------------------------------


 First call to EWALD:  gamma=   0.281
 Maximum number of real-space cells 3x 3x 2
 Maximum number of reciprocal cells 2x 2x 4

    FEWALD:  cpu time    0.0042: real time    0.0081


--------------------------------------- Iteration      1(   1)  ---------------------------------------


    POTLOK:  cpu time    0.0788: real time    0.1188
    SETDIJ:  cpu time    0.2357: real time    0.2446
     EDDAV:  cpu time    5.2221: real time    5.3418
 BZINTS: Fermi energy: 15.036151; 64.000000 electrons
         Band energy:-237.264521;  BLOECHL correction: -0.162493
       DOS:  cpu time    0.0732: real time    0.0757
    --------------------------------------------
      LOOP:  cpu time    5.6097: real time    5.7809

 eigenvalue-minimisations  :  9856
 total energy-change (2. order) : 0.4028355E+03  (-0.2602562E+04)
 number of electron      64.0000000 magnetization       0.0000000
 augmentation part       64.0000000 magnetization       0.0000000

 Free energy of the ion-electron system (eV)
  ---------------------------------------------------
  alpha Z        PSCENC =        56.49135098
  Ewald energy   TEWEN  =     -2102.83465678
  -Hartree energ DENC   =      -413.06322334
  -exchange      EXHF   =         0.00000000
  -V(xc)+E(xc)   XCENC  =       126.94017218
  PAW double counting   =      1756.17324610    -1814.12517351
  entropy T*S    EENTRO =         0.00000000
  eigenvalues    EBANDS =      -237.26452144
  atomic energy  EATOM  =      3030.51834690
  Solvation  Ediel_sol  =         0.00000000
  ---------------------------------------------------
  free energy    TOTEN  =       402.83554109 eV

  energy without entropy =      402.83554109  energy(sigma->0) =      402.83554109


--------------------------------------------------------------------------------------------------------




--------------------------------------- Iteration      1(   2)  ---------------------------------------


     EDDAV:  cpu time    5.6505: real time    5.6560
 BZINTS: Fermi energy:  6.240530; 64.000000 electrons
         Band energy:-646.134756;  BLOECHL correction: -0.007652
       DOS:  cpu time    0.0613: real time    0.0613
    --------------------------------------------
      LOOP:  cpu time    5.7119: real time    5.7173

 eigenvalue-minimisations  : 11156
 total energy-change (2. order) :-0.4088702E+03  (-0.3789981E+03)
 number of electron      64.0000000 magnetization       0.0000000
 augmentation part       64.0000000 magnetization       0.0000000

 Free energy of the ion-electron system (eV)
  ---------------------------------------------------
  alpha Z        PSCENC =        56.49135098
  Ewald energy   TEWEN  =     -2102.83465678
  -Hartree energ DENC   =      -413.06322334
  -exchange      EXHF   =         0.00000000
  -V(xc)+E(xc)   XCENC  =       126.94017218
  PAW double counting   =      1756.17324610    -1814.12517351
  entropy T*S    EENTRO =         0.00000000
  eigenvalues    EBANDS =      -646.13475629
  atomic energy  EATOM  =      3030.51834690
  Solvation  Ediel_sol  =         0.00000000
  ---------------------------------------------------
  free energy    TOTEN  =        -6.03469376 eV

  energy without entropy =       -6.03469376  energy(sigma->0) =       -6.03469376


--------------------------------------------------------------------------------------------------------




--------------------------------------- Iteration      1(   3)  ---------------------------------------


     EDDAV:  cpu time    6.8436: real time    6.8486
 BZINTS: Fermi energy:  4.487341; 64.000000 electrons
         Band energy:-699.023726;  BLOECHL correction:  0.000000
       DOS:  cpu time    0.0124: real time    0.0124
    --------------------------------------------
      LOOP:  cpu time    6.8560: real time    6.8610

 eigenvalue-minimisations  : 14276
 total energy-change (2. order) :-0.5288897E+02  (-0.5210446E+02)
 number of electron      64.0000000 magnetization       0.0000000
 augmentation part       64.0000000 magnetization       0.0000000

 Free energy of the ion-electron system (eV)
  ---------------------------------------------------
  alpha Z        PSCENC =        56.49135098
  Ewald energy   TEWEN  =     -2102.83465678
  -Hartree energ DENC   =      -413.06322334
  -exchange      EXHF   =         0.00000000
  -V(xc)+E(xc)   XCENC  =       126.94017218
  PAW double counting   =      1756.17324610    -1814.12517351
  entropy T*S    EENTRO =         0.00000000
  eigenvalues    EBANDS =      -699.02372565
  atomic energy  EATOM  =      3030.51834690
  Solvation  Ediel_sol  =         0.00000000
  ---------------------------------------------------
  free energy    TOTEN  =       -58.92366313 eV

  energy without entropy =      -58.92366313  energy(sigma->0) =      -58.92366313


--------------------------------------------------------------------------------------------------------




--------------------------------------- Iteration      1(   4)  ---------------------------------------


     EDDAV:  cpu time    8.2980: real time    8.3026
 BZINTS: Fermi energy:  4.398795; 64.000000 electrons
         Band energy:-706.695547;  BLOECHL correction:  0.000000
       DOS:  cpu time    0.0120: real time    0.0120
    --------------------------------------------
      LOOP:  cpu time    8.3100: real time    8.3146

 eigenvalue-minimisations  : 17912
 total energy-change (2. order) :-0.7671821E+01  (-0.7612245E+01)
 number of electron      64.0000000 magnetization       0.0000000
 augmentation part       64.0000000 magnetization       0.0000000

 Free energy of the ion-electron system (eV)
  ---------------------------------------------------
  alpha Z        PSCENC =        56.49135098
  Ewald energy   TEWEN  =     -2102.83465678
  -Hartree energ DENC   =      -413.06322334
  -exchange      EXHF   =         0.00000000
  -V(xc)+E(xc)   XCENC  =       126.94017218
  PAW double counting   =      1756.17324610    -1814.12517351
  entropy T*S    EENTRO =         0.00000000
  eigenvalues    EBANDS =      -706.69554667
  atomic energy  EATOM  =      3030.51834690
  Solvation  Ediel_sol  =         0.00000000
  ---------------------------------------------------
  free energy    TOTEN  =       -66.59548415 eV

  energy without entropy =      -66.59548415  energy(sigma->0) =      -66.59548415


--------------------------------------------------------------------------------------------------------




--------------------------------------- Iteration      1(   5)  ---------------------------------------


     EDDAV:  cpu time    6.9774: real time    6.9815
 BZINTS: Fermi energy:  4.395484; 64.000000 electrons
         Band energy:-707.551535;  BLOECHL correction:  0.000000
       DOS:  cpu time    0.0118: real time    0.0118
    CHARGE:  cpu time    0.2921: real time    0.3008
    MIXING:  cpu time    0.0099: real time    0.0155
    --------------------------------------------
      LOOP:  cpu time    7.2912: real time    7.3096

 eigenvalue-minimisations  : 14632
 total energy-change (2. order) :-0.8559885E+00  (-0.8556724E+00)
 number of electron      64.0000021 magnetization      -0.0000000
 augmentation part        3.6377539 magnetization      -0.0011218

 Broyden mixing:
  rms(total) = 0.12832E+01    rms(broyden)= 0.12829E+01
  rms(prec ) = 0.13614E+01
  weight for this iteration     100.00

 Free energy of the ion-electron system (eV)
  ---------------------------------------------------
  alpha Z        PSCENC =        56.49135098
  Ewald energy   TEWEN  =     -2102.83465678
  -Hartree energ DENC   =      -413.06322334
  -exchange      EXHF   =         0.00000000
  -V(xc)+E(xc)   XCENC  =       126.94017218
  PAW double counting   =      1756.17324610    -1814.12517351
  entropy T*S    EENTRO =         0.00000000
  eigenvalues    EBANDS =      -707.55153518
  atomic energy  EATOM  =      3030.51834690
  Solvation  Ediel_sol  =         0.00000000
  ---------------------------------------------------
  free energy    TOTEN  =       -67.45147265 eV

  energy without entropy =      -67.45147265  energy(sigma->0) =      -67.45147265


--------------------------------------------------------------------------------------------------------




--------------------------------------- Iteration      1(   6)  ---------------------------------------


    POTLOK:  cpu time    0.0625: real time    0.0633
    SETDIJ:  cpu time    0.2443: real time    0.2445
    EDDIAG:  cpu time    0.9314: real time    0.9354
  RMM-DIIS:  cpu time    4.6696: real time    4.6737
    ORTHCH:  cpu time    0.0835: real time    0.0856
 BZINTS: Fermi energy:  4.509009; 64.000000 electrons
         Band energy:-704.926548;  BLOECHL correction:  0.000000
       DOS:  cpu time    0.0118: real time    0.0118
    CHARGE:  cpu time    0.2831: real time    0.2832
    MIXING:  cpu time    0.0021: real time    0.0051
    --------------------------------------------
      LOOP:  cpu time    6.2884: real time    6.3025

 eigenvalue-minimisations  : 12304
 total energy-change (2. order) : 0.3298269E+00  (-0.5066311E-01)
 number of electron      64.0000020 magnetization      -0.0000000
 augmentation part        3.6613975 magnetization      -0.0009641

 Broyden mixing:
  rms(total) = 0.78390E+00    rms(broyden)= 0.78389E+00
  rms(prec ) = 0.82471E+00
  weight for this iteration     100.00

 eigenvalues of (default mixing * dielectric matrix)
  average eigenvalue GAMMA=   2.5480
  2.5480

 Free energy of the ion-electron system (eV)
  ---------------------------------------------------
  alpha Z        PSCENC =        56.49135098
  Ewald energy   TEWEN  =     -2102.83465678
  -Hartree energ DENC   =      -414.42602067
  -exchange      EXHF   =         0.00000000
  -V(xc)+E(xc)   XCENC  =       127.49086598
  PAW double counting   =      2724.64133737    -2784.07632133
  entropy T*S    EENTRO =         0.00000000
  eigenvalues    EBANDS =      -704.92654819
  atomic energy  EATOM  =      3030.51834690
  Solvation  Ediel_sol  =         0.00000000
  ---------------------------------------------------
  free energy    TOTEN  =       -67.12164573 eV

  energy without entropy =      -67.12164573  energy(sigma->0) =      -67.12164573


--------------------------------------------------------------------------------------------------------




--------------------------------------- Iteration      1(   7)  ---------------------------------------


    POTLOK:  cpu time    0.0616: real time    0.0661
    SETDIJ:  cpu time    0.2434: real time    0.2437
    EDDIAG:  cpu time    0.9258: real time    0.9263
  RMM-DIIS:  cpu time    4.6778: real time    4.6808
    ORTHCH:  cpu time    0.0835: real time    0.0835
 BZINTS: Fermi energy:  4.645025; 64.000000 electrons
         Band energy:-702.706048;  BLOECHL correction:  0.000000
       DOS:  cpu time    0.0100: real time    0.0100
    CHARGE:  cpu time    0.2834: real time    0.2835
    MIXING:  cpu time    0.0016: real time    0.0016
    --------------------------------------------
      LOOP:  cpu time    6.2871: real time    6.2956

 eigenvalue-minimisations  : 12447
 total energy-change (2. order) : 0.8407152E-01  (-0.6122454E-01)
 number of electron      64.0000020 magnetization      -0.0000000
 augmentation part        3.6713585 magnetization      -0.0001166

 Broyden mixing:
  rms(total) = 0.49188E-01    rms(broyden)= 0.49179E-01
  rms(prec ) = 0.69514E-01
  weight for this iteration     100.00

 eigenvalues of (default mixing * dielectric matrix)
  average eigenvalue GAMMA=   1.9992
  1.6480  2.3504

 Free energy of the ion-electron system (eV)
  ---------------------------------------------------
  alpha Z        PSCENC =        56.49135098
  Ewald energy   TEWEN  =     -2102.83465678
  -Hartree energ DENC   =      -415.25058526
  -exchange      EXHF   =         0.00000000
  -V(xc)+E(xc)   XCENC  =       128.33825564
  PAW double counting   =      4893.02303037    -4954.61726845
  entropy T*S    EENTRO =         0.00000000
  eigenvalues    EBANDS =      -702.70604761
  atomic energy  EATOM  =      3030.51834690
  Solvation  Ediel_sol  =         0.00000000
  ---------------------------------------------------
  free energy    TOTEN  =       -67.03757422 eV

  energy without entropy =      -67.03757422  energy(sigma->0) =      -67.03757422


--------------------------------------------------------------------------------------------------------




--------------------------------------- Iteration      1(   8)  ---------------------------------------


    POTLOK:  cpu time    0.0617: real time    0.0619
    SETDIJ:  cpu time    0.2439: real time    0.2440
    EDDIAG:  cpu time    0.9261: real time    0.9268
  RMM-DIIS:  cpu time    5.3193: real time    5.3228
    ORTHCH:  cpu time    0.0845: real time    0.0848
 BZINTS: Fermi energy:  4.621680; 64.000000 electrons
         Band energy:-704.061759;  BLOECHL correction:  0.000000
       DOS:  cpu time    0.0100: real time    0.0100
    CHARGE:  cpu time    0.2842: real time    0.2844
    MIXING:  cpu time    0.0014: real time    0.0014
    --------------------------------------------
      LOOP:  cpu time    6.9310: real time    6.9360

 eigenvalue-minimisations  : 14294
 total energy-change (2. order) : 0.3248244E-02  (-0.7859399E-02)
 number of electron      64.0000020 magnetization      -0.0000000
 augmentation part        3.6261072 magnetization      -0.0001967

 Broyden mixing:
  rms(total) = 0.23764E-01    rms(broyden)= 0.23699E-01
  rms(prec ) = 0.27273E-01
  weight for this iteration     100.00

 eigenvalues of (default mixing * dielectric matrix)
  average eigenvalue GAMMA=   1.6008
  2.1662  1.9968  0.6394

 Free energy of the ion-electron system (eV)
  ---------------------------------------------------
  alpha Z        PSCENC =        56.49135098
  Ewald energy   TEWEN  =     -2102.83465678
  -Hartree energ DENC   =      -413.86220498
  -exchange      EXHF   =         0.00000000
  -V(xc)+E(xc)   XCENC  =       128.24795410
  PAW double counting   =      4856.55936672    -4918.09272384
  entropy T*S    EENTRO =         0.00000000
  eigenvalues    EBANDS =      -704.06175907
  atomic energy  EATOM  =      3030.51834690
  Solvation  Ediel_sol  =         0.00000000
  ---------------------------------------------------
  free energy    TOTEN  =       -67.03432597 eV

  energy without entropy =      -67.03432597  energy(sigma->0) =      -67.03432597


--------------------------------------------------------------------------------------------------------




--------------------------------------- Iteration      1(   9)  ---------------------------------------


    POTLOK:  cpu time    0.0626: real time    0.0653
    SETDIJ:  cpu time    0.2434: real time    0.2436
    EDDIAG:  cpu time    0.9272: real time    0.9277
  RMM-DIIS:  cpu time    5.4795: real time    5.4828
    ORTHCH:  cpu time    0.0835: real time    0.0835
 BZINTS: Fermi energy:  4.609672; 64.000000 electrons
         Band energy:-704.120876;  BLOECHL correction:  0.000000
       DOS:  cpu time    0.0099: real time    0.0099
    CHARGE:  cpu time    0.2841: real time    0.2842
    MIXING:  cpu time    0.0014: real time    0.0014
    --------------------------------------------
      LOOP:  cpu time    7.0917: real time    7.0984

 eigenvalue-minimisations  : 14336
 total energy-change (2. order) :-0.2825972E-02  (-0.3083741E-02)
 number of electron      64.0000020 magnetization      -0.0000000
 augmentation part        3.6080707 magnetization      -0.0001358

 Broyden mixing:
  rms(total) = 0.16894E-01    rms(broyden)= 0.16842E-01
  rms(prec ) = 0.18686E-01
  weight for this iteration     100.00

 eigenvalues of (default mixing * dielectric matrix)
  average eigenvalue GAMMA=   1.5994
  2.2472  2.2472  1.1396  0.7637

 Free energy of the ion-electron system (eV)
  ---------------------------------------------------
  alpha Z        PSCENC =        56.49135098
  Ewald energy   TEWEN  =     -2102.83465678
  -Hartree energ DENC   =      -413.77389027
  -exchange      EXHF   =         0.00000000
  -V(xc)+E(xc)   XCENC  =       128.25340758
  PAW double counting   =      4840.11593085    -4901.68676542
  entropy T*S    EENTRO =         0.00000000
  eigenvalues    EBANDS =      -704.12087579
  atomic energy  EATOM  =      3030.51834690
  Solvation  Ediel_sol  =         0.00000000
  ---------------------------------------------------
  free energy    TOTEN  =       -67.03715194 eV

  energy without entropy =      -67.03715194  energy(sigma->0) =      -67.03715194


--------------------------------------------------------------------------------------------------------




--------------------------------------- Iteration      1(  10)  ---------------------------------------


    POTLOK:  cpu time    0.0628: real time    0.0630
    SETDIJ:  cpu time    0.2442: real time    0.2444
    EDDIAG:  cpu time    0.9271: real time    0.9275
  RMM-DIIS:  cpu time    5.6587: real time    5.6624
    ORTHCH:  cpu time    0.0837: real time    0.0838
 BZINTS: Fermi energy:  4.601229; 64.000000 electrons
         Band energy:-703.940527;  BLOECHL correction:  0.000000
       DOS:  cpu time    0.0099: real time    0.0100
    CHARGE:  cpu time    0.2833: real time    0.2834
    MIXING:  cpu time    0.0015: real time    0.0015
    --------------------------------------------
      LOOP:  cpu time    7.2712: real time    7.2759

 eigenvalue-minimisations  : 15212
 total energy-change (2. order) :-0.1402901E-02  (-0.1323469E-02)
 number of electron      64.0000020 magnetization      -0.0000000
 augmentation part        3.5966257 magnetization      -0.0002507

 Broyden mixing:
  rms(total) = 0.10610E-01    rms(broyden)= 0.10567E-01
  rms(prec ) = 0.11532E-01
  weight for this iteration     100.00

 eigenvalues of (default mixing * dielectric matrix)
  average eigenvalue GAMMA=   1.7839
  2.3169  2.3169  2.3383  1.3205  0.6271

 Free energy of the ion-electron system (eV)
  ---------------------------------------------------
  alpha Z        PSCENC =        56.49135098
  Ewald energy   TEWEN  =     -2102.83465678
  -Hartree energ DENC   =      -413.97916081
  -exchange      EXHF   =         0.00000000
  -V(xc)+E(xc)   XCENC  =       128.28447451
  PAW double counting   =      4827.07848939    -4888.65687154
  entropy T*S    EENTRO =         0.00000000
  eigenvalues    EBANDS =      -703.94052749
  atomic energy  EATOM  =      3030.51834690
  Solvation  Ediel_sol  =         0.00000000
  ---------------------------------------------------
  free energy    TOTEN  =       -67.03855484 eV

  energy without entropy =      -67.03855484  energy(sigma->0) =      -67.03855484


--------------------------------------------------------------------------------------------------------




--------------------------------------- Iteration      1(  11)  ---------------------------------------


    POTLOK:  cpu time    0.0617: real time    0.0618
    SETDIJ:  cpu time    0.2434: real time    0.2435
    EDDIAG:  cpu time    0.9372: real time    0.9377
  RMM-DIIS:  cpu time    5.3432: real time    5.3469
    ORTHCH:  cpu time    0.0834: real time    0.0835
 BZINTS: Fermi energy:  4.735049; 64.000000 electrons
         Band energy:-703.774246;  BLOECHL correction:  0.000000
       DOS:  cpu time    0.0116: real time    0.0116
    CHARGE:  cpu time    0.2838: real time    0.2839
    MIXING:  cpu time    0.0015: real time    0.0015
    --------------------------------------------
      LOOP:  cpu time    6.9657: real time    6.9704

 eigenvalue-minimisations  : 14101
 total energy-change (2. order) :-0.5872527E-03  (-0.5635111E-03)
 number of electron      64.0000020 magnetization      -0.0000000
 augmentation part        3.5905657 magnetization      -0.0001885

 Broyden mixing:
  rms(total) = 0.40096E-02    rms(broyden)= 0.39666E-02
  rms(prec ) = 0.45294E-02
  weight for this iteration     100.00

 eigenvalues of (default mixing * dielectric matrix)
  average eigenvalue GAMMA=   1.7472
  2.8153  2.3487  2.3487  1.4948  0.8470  0.6287

 Free energy of the ion-electron system (eV)
  ---------------------------------------------------
  alpha Z        PSCENC =        56.49135098
  Ewald energy   TEWEN  =     -2102.83465678
  -Hartree energ DENC   =      -414.20688788
  -exchange      EXHF   =         0.00000000
  -V(xc)+E(xc)   XCENC  =       128.31605025
  PAW double counting   =      4825.24428488    -4886.79338419
  entropy T*S    EENTRO =         0.00000000
  eigenvalues    EBANDS =      -703.77424625
  atomic energy  EATOM  =      3030.51834690
  Solvation  Ediel_sol  =         0.00000000
  ---------------------------------------------------
  free energy    TOTEN  =       -67.03914210 eV

  energy without entropy =      -67.03914210  energy(sigma->0) =      -67.03914210


--------------------------------------------------------------------------------------------------------




--------------------------------------- Iteration      1(  12)  ---------------------------------------


    POTLOK:  cpu time    0.0618: real time    0.0618
    SETDIJ:  cpu time    0.2435: real time    0.2436
    EDDIAG:  cpu time    0.9253: real time    0.9264
  RMM-DIIS:  cpu time    5.2695: real time    5.2732
    ORTHCH:  cpu time    0.0835: real time    0.0835
 BZINTS: Fermi energy:  4.728249; 64.000000 electrons
         Band energy:-703.733952;  BLOECHL correction:  0.000000
       DOS:  cpu time    0.0116: real time    0.0116
    CHARGE:  cpu time    0.2834: real time    0.2835
    MIXING:  cpu time    0.0015: real time    0.0016
    --------------------------------------------
      LOOP:  cpu time    6.8800: real time    6.8853

 eigenvalue-minimisations  : 13890
 total energy-change (2. order) :-0.2175430E-03  (-0.2457725E-03)
 number of electron      64.0000020 magnetization      -0.0000000
 augmentation part        3.5866993 magnetization      -0.0001316

 Broyden mixing:
  rms(total) = 0.84820E-03    rms(broyden)= 0.77522E-03
  rms(prec ) = 0.91283E-03
  weight for this iteration     100.00

 eigenvalues of (default mixing * dielectric matrix)
  average eigenvalue GAMMA=   1.6611
  2.9003  2.3860  2.3860  1.5609  0.8850  0.8850  0.6245

 Free energy of the ion-electron system (eV)
  ---------------------------------------------------
  alpha Z        PSCENC =        56.49135098
  Ewald energy   TEWEN  =     -2102.83465678
  -Hartree energ DENC   =      -414.28478922
  -exchange      EXHF   =         0.00000000
  -V(xc)+E(xc)   XCENC  =       128.32901315
  PAW double counting   =      4824.50799555    -4886.03266867
  entropy T*S    EENTRO =         0.00000000
  eigenvalues    EBANDS =      -703.73395156
  atomic energy  EATOM  =      3030.51834690
  Solvation  Ediel_sol  =         0.00000000
  ---------------------------------------------------
  free energy    TOTEN  =       -67.03935964 eV

  energy without entropy =      -67.03935964  energy(sigma->0) =      -67.03935964


--------------------------------------------------------------------------------------------------------




--------------------------------------- Iteration      1(  13)  ---------------------------------------


    POTLOK:  cpu time    0.0617: real time    0.0618
    SETDIJ:  cpu time    0.2441: real time    0.2442
    EDDIAG:  cpu time    0.9241: real time    0.9247
  RMM-DIIS:  cpu time    5.1973: real time    5.2004
    ORTHCH:  cpu time    0.0843: real time    0.0845
 BZINTS: Fermi energy:  4.723222; 64.000000 electrons
         Band energy:-703.727396;  BLOECHL correction:  0.000000
       DOS:  cpu time    0.0116: real time    0.0116
    CHARGE:  cpu time    0.2835: real time    0.2836
    MIXING:  cpu time    0.0017: real time    0.0017
    --------------------------------------------
      LOOP:  cpu time    6.8083: real time    6.8126

 eigenvalue-minimisations  : 13728
 total energy-change (2. order) :-0.1333072E-03  (-0.1295412E-03)
 number of electron      64.0000020 magnetization      -0.0000000
 augmentation part        3.5846976 magnetization      -0.0001158

 Broyden mixing:
  rms(total) = 0.15369E-02    rms(broyden)= 0.15201E-02
  rms(prec ) = 0.18467E-02
  weight for this iteration     100.00

 eigenvalues of (default mixing * dielectric matrix)
  average eigenvalue GAMMA=   1.6544
  3.2015  2.4815  2.4815  1.7496  1.0550  1.0550  0.6305  0.5810

 Free energy of the ion-electron system (eV)
  ---------------------------------------------------
  alpha Z        PSCENC =        56.49135098
  Ewald energy   TEWEN  =     -2102.83465678
  -Hartree energ DENC   =      -414.30723404
  -exchange      EXHF   =         0.00000000
  -V(xc)+E(xc)   XCENC  =       128.33040084
  PAW double counting   =      4826.39817609    -4887.90848086
  entropy T*S    EENTRO =         0.00000000
  eigenvalues    EBANDS =      -703.72739607
  atomic energy  EATOM  =      3030.51834690
  Solvation  Ediel_sol  =         0.00000000
  ---------------------------------------------------
  free energy    TOTEN  =       -67.03949295 eV

  energy without entropy =      -67.03949295  energy(sigma->0) =      -67.03949295


--------------------------------------------------------------------------------------------------------




--------------------------------------- Iteration      1(  14)  ---------------------------------------


    POTLOK:  cpu time    0.0622: real time    0.0629
    SETDIJ:  cpu time    0.2444: real time    0.2446
    EDDIAG:  cpu time    0.9252: real time    0.9257
  RMM-DIIS:  cpu time    4.9824: real time    4.9861
    ORTHCH:  cpu time    0.0835: real time    0.0836
 BZINTS: Fermi energy:  4.718462; 64.000000 electrons
         Band energy:-703.726490;  BLOECHL correction:  0.000000
       DOS:  cpu time    0.0116: real time    0.0116
    CHARGE:  cpu time    0.2840: real time    0.2841
    MIXING:  cpu time    0.0017: real time    0.0017
    --------------------------------------------
      LOOP:  cpu time    6.5950: real time    6.6003

 eigenvalue-minimisations  : 13001
 total energy-change (2. order) :-0.5892151E-04  (-0.6416954E-04)
 number of electron      64.0000020 magnetization      -0.0000000
 augmentation part        3.5832876 magnetization      -0.0000938

 Broyden mixing:
  rms(total) = 0.12805E-02    rms(broyden)= 0.12733E-02
  rms(prec ) = 0.15288E-02
  weight for this iteration     100.00

 eigenvalues of (default mixing * dielectric matrix)
  average eigenvalue GAMMA=   1.4872
  3.2159  2.4950  2.4950  1.7562  1.0480  1.0480  0.6297  0.5701  0.1273

 Free energy of the ion-electron system (eV)
  ---------------------------------------------------
  alpha Z        PSCENC =        56.49135098
  Ewald energy   TEWEN  =     -2102.83465678
  -Hartree energ DENC   =      -414.32095542
  -exchange      EXHF   =         0.00000000
  -V(xc)+E(xc)   XCENC  =       128.33167517
  PAW double counting   =      4826.19833431    -4887.69715697
  entropy T*S    EENTRO =         0.00000000
  eigenvalues    EBANDS =      -703.72649006
  atomic energy  EATOM  =      3030.51834690
  Solvation  Ediel_sol  =         0.00000000
  ---------------------------------------------------
  free energy    TOTEN  =       -67.03955187 eV

  energy without entropy =      -67.03955187  energy(sigma->0) =      -67.03955187


--------------------------------------------------------------------------------------------------------




--------------------------------------- Iteration      1(  15)  ---------------------------------------


    POTLOK:  cpu time    0.0626: real time    0.0628
    SETDIJ:  cpu time    0.2440: real time    0.2441
    EDDIAG:  cpu time    0.9242: real time    0.9247
  RMM-DIIS:  cpu time    4.4230: real time    4.4258
    ORTHCH:  cpu time    0.0835: real time    0.0835
 BZINTS: Fermi energy:  4.714048; 64.000000 electrons
         Band energy:-703.728684;  BLOECHL correction:  0.000000
       DOS:  cpu time    0.0116: real time    0.0116
    CHARGE:  cpu time    0.2837: real time    0.2839
    MIXING:  cpu time    0.0018: real time    0.0018
    --------------------------------------------
      LOOP:  cpu time    6.0343: real time    6.0381

 eigenvalue-minimisations  : 11430
 total energy-change (2. order) :-0.3696514E-04  (-0.3355436E-04)
 number of electron      64.0000020 magnetization      -0.0000000
 augmentation part        3.5827187 magnetization      -0.0000775

 Broyden mixing:
  rms(total) = 0.20090E-02    rms(broyden)= 0.20077E-02
  rms(prec ) = 0.23922E-02
  weight for this iteration     100.00

 eigenvalues of (default mixing * dielectric matrix)
  average eigenvalue GAMMA=   1.5636
  2.9978  2.9978  2.5168  1.5758  1.5758  1.0862  0.7752  0.7752  0.7118  0.6234

 Free energy of the ion-electron system (eV)
  ---------------------------------------------------
  alpha Z        PSCENC =        56.49135098
  Ewald energy   TEWEN  =     -2102.83465678
  -Hartree energ DENC   =      -414.30970880
  -exchange      EXHF   =         0.00000000
  -V(xc)+E(xc)   XCENC  =       128.33075029
  PAW double counting   =      4826.10460759    -4887.61159491
  entropy T*S    EENTRO =         0.00000000
  eigenvalues    EBANDS =      -703.72868411
  atomic energy  EATOM  =      3030.51834690
  Solvation  Ediel_sol  =         0.00000000
  ---------------------------------------------------
  free energy    TOTEN  =       -67.03958883 eV

  energy without entropy =      -67.03958883  energy(sigma->0) =      -67.03958883


--------------------------------------------------------------------------------------------------------




--------------------------------------- Iteration      1(  16)  ---------------------------------------


    POTLOK:  cpu time    0.0617: real time    0.0644
    SETDIJ:  cpu time    0.2433: real time    0.2434
    EDDIAG:  cpu time    0.9240: real time    0.9247
  RMM-DIIS:  cpu time    4.4604: real time    5.8462
    ORTHCH:  cpu time    0.6357: real time    1.2063
 BZINTS: Fermi energy:  4.709840; 64.000000 electrons
         Band energy:-703.723891;  BLOECHL correction:  0.000000
       DOS:  cpu time    0.0115: real time    0.0115
    CHARGE:  cpu time    0.3385: real time    0.6536
    MIXING:  cpu time    0.0043: real time    0.0171
    --------------------------------------------
      LOOP:  cpu time    6.6795: real time    8.9672

 eigenvalue-minimisations  :  9886
 total energy-change (2. order) :-0.5714371E-05  (-0.1627824E-04)
 number of electron      64.0000020 magnetization      -0.0000000
 augmentation part        3.5824646 magnetization      -0.0000676

 Broyden mixing:
  rms(total) = 0.91242E-03    rms(broyden)= 0.91194E-03
  rms(prec ) = 0.11632E-02
  weight for this iteration     100.00

 eigenvalues of (default mixing * dielectric matrix)
  average eigenvalue GAMMA=   1.5267
  3.6305  2.8262  2.2756  2.0890  1.5513  1.2831  0.8271  0.6416  0.6238  0.6238
  0.4213

 Free energy of the ion-electron system (eV)
  ---------------------------------------------------
  alpha Z        PSCENC =        56.49135098
  Ewald energy   TEWEN  =     -2102.83465678
  -Hartree energ DENC   =      -414.33888418
  -exchange      EXHF   =         0.00000000
  -V(xc)+E(xc)   XCENC  =       128.33297627
  PAW double counting   =      4826.24315533    -4887.72799245
  entropy T*S    EENTRO =         0.00000000
  eigenvalues    EBANDS =      -703.72389062
  atomic energy  EATOM  =      3030.51834690
  Solvation  Ediel_sol  =         0.00000000
  ---------------------------------------------------
  free energy    TOTEN  =       -67.03959455 eV

  energy without entropy =      -67.03959455  energy(sigma->0) =      -67.03959455


--------------------------------------------------------------------------------------------------------




--------------------------------------- Iteration      1(  17)  ---------------------------------------


    POTLOK:  cpu time    0.0653: real time    0.1238
    SETDIJ:  cpu time    0.2365: real time    0.4817
    EDDIAG:  cpu time    1.3664: real time    2.7332
  RMM-DIIS:  cpu time    6.2014: real time   12.3386
    ORTHCH:  cpu time    0.1289: real time    0.2534
 BZINTS: Fermi energy:  4.705845; 64.000000 electrons
         Band energy:-703.725894;  BLOECHL correction:  0.000000
       DOS:  cpu time    0.0115: real time    0.0115
    CHARGE:  cpu time    0.3214: real time    0.6573
    MIXING:  cpu time    0.0052: real time    0.0070
    --------------------------------------------
      LOOP:  cpu time    8.3366: real time   16.6066

 eigenvalue-minimisations  : 10622
 total energy-change (2. order) :-0.8992253E-05  (-0.1332191E-04)
 number of electron      64.0000020 magnetization      -0.0000000
 augmentation part        3.5822085 magnetization      -0.0000533

 Broyden mixing:
  rms(total) = 0.56362E-03    rms(broyden)= 0.56325E-03
  rms(prec ) = 0.70915E-03
  weight for this iteration     100.00

 eigenvalues of (default mixing * dielectric matrix)
  average eigenvalue GAMMA=   1.5013
  3.7968  2.8540  2.2360  2.2142  1.6451  1.3491  0.8350  0.8350  0.6570  0.6246
  0.4844  0.4844

 Free energy of the ion-electron system (eV)
  ---------------------------------------------------
  alpha Z        PSCENC =        56.49135098
  Ewald energy   TEWEN  =     -2102.83465678
  -Hartree energ DENC   =      -414.34356324
  -exchange      EXHF   =         0.00000000
  -V(xc)+E(xc)   XCENC  =       128.33339080
  PAW double counting   =      4826.32141011    -4887.79998828
  entropy T*S    EENTRO =         0.00000000
  eigenvalues    EBANDS =      -703.72589402
  atomic energy  EATOM  =      3030.51834690
  Solvation  Ediel_sol  =         0.00000000
  ---------------------------------------------------
  free energy    TOTEN  =       -67.03960354 eV

  energy without entropy =      -67.03960354  energy(sigma->0) =      -67.03960354


--------------------------------------------------------------------------------------------------------




--------------------------------------- Iteration      1(  18)  ---------------------------------------


    POTLOK:  cpu time    0.0652: real time    0.1278
    SETDIJ:  cpu time    0.2440: real time    0.4967
    EDDIAG:  cpu time    1.5992: real time    3.1640
  RMM-DIIS:  cpu time    4.2762: real time    7.3979
    ORTHCH:  cpu time    0.0836: real time    0.0836
 BZINTS: Fermi energy:  4.702049; 64.000000 electrons
         Band energy:-703.726916;  BLOECHL correction:  0.000000
       DOS:  cpu time    0.0115: real time    0.0115
    --------------------------------------------
      LOOP:  cpu time    6.2796: real time   11.2815

 eigenvalue-minimisations  :  9387
 total energy-change (2. order) :-0.5072620E-05  (-0.7486685E-05)
 number of electron      64.0000020 magnetization      -0.0000000
 augmentation part        3.5822085 magnetization      -0.0000533

 Free energy of the ion-electron system (eV)
  ---------------------------------------------------
  alpha Z        PSCENC =        56.49135098
  Ewald energy   TEWEN  =     -2102.83465678
  -Hartree energ DENC   =      -414.34727433
  -exchange      EXHF   =         0.00000000
  -V(xc)+E(xc)   XCENC  =       128.33372786
  PAW double counting   =      4826.51814334    -4887.99233068
  entropy T*S    EENTRO =         0.00000000
  eigenvalues    EBANDS =      -703.72691589
  atomic energy  EATOM  =      3030.51834690
  Solvation  Ediel_sol  =         0.00000000
  ---------------------------------------------------
  free energy    TOTEN  =       -67.03960861 eV

  energy without entropy =      -67.03960861  energy(sigma->0) =      -67.03960861


--------------------------------------------------------------------------------------------------------




 average (electrostatic) potential at core
  the test charge radii are     0.7079  0.9587
  (the norm of the test charge is              1.0000)
       1 -60.6582       2 -60.6582       3 -60.6582       4 -60.6582       5 -60.6793
       6 -60.6793       7 -60.6793       8 -60.6793       9 -83.8925      10 -83.8925
      11 -83.8925      12 -83.8925      13 -83.9976      14 -83.9976      15 -83.9976
      16 -83.9976
 
 
 
 E-fermi :   4.7020     XC(G=0):  -9.2014     alpha+bet :-11.7917


 spin component 1

 k-point     1 :       0.0000    0.0000    0.0000
  band No.  band energies     occupation 
      1     -41.6035      1.00000
      2     -41.6027      1.00000
      3     -41.5935      1.00000
      4     -41.5935      1.00000
      5     -41.5780      1.00000
      6     -41.5771      1.00000
      7     -41.5754      1.00000
      8     -41.5753      1.00000
      9      -8.9281      1.00000
     10      -8.6377      1.00000
     11      -6.3490      1.00000
     12      -5.9765      1.00000
     13      -5.8248      1.00000
     14      -5.7004      1.00000
     15      -2.2934      1.00000
     16      -2.0802      1.00000
     17      -0.9489      1.00000
     18      -0.3338      1.00000
     19      -0.1357      1.00000
     20      -0.0744      1.00000
     21       0.6186      1.00000
     22       0.9378      1.00000
     23       1.1283      1.00000
     24       1.3786      1.00000
     25       1.9142      1.00000
     26       2.3949      1.00000
     27       2.5486      1.00000
     28       2.8134      1.00000
     29       3.2705      1.00000
     30       3.3648      1.00000
     31       3.5101      1.00000
     32       4.3408      1.00000
     33       5.4607      0.00000
     34       5.7423      0.00000
     35       6.1404      0.00000
     36       6.2668      0.00000
     37       6.6129      0.00000
     38       7.4210      0.00000
     39       7.4332      0.00000
     40       7.6957      0.00000
     41       8.3633      0.00000
     42       8.4770      0.00000
     43       8.9630      0.00000
     44       9.2526      0.00000

 k-point     2 :       0.1667    0.0000    0.0000
  band No.  band energies     occupation 
      1     -41.6033      1.00000
      2     -41.6025      1.00000
      3     -41.5937      1.00000
      4     -41.5937      1.00000
      5     -41.5778      1.00000
      6     -41.5770      1.00000
      7     -41.5755      1.00000
      8     -41.5754      1.00000
      9      -8.8257      1.00000
     10      -8.5416      1.00000
     11      -6.7579      1.00000
     12      -6.6338      1.00000
     13      -5.3417      1.00000
     14      -5.1289      1.00000
     15      -2.7165      1.00000
     16      -2.2551      1.00000
     17      -0.8101      1.00000
     18      -0.1808      1.00000
     19      -0.0477      1.00000
     20       0.0055      1.00000
     21       0.4031      1.00000
     22       0.9584      1.00000
     23       1.1993      1.00000
     24       1.3057      1.00000
     25       2.1278      1.00000
     26       2.4508      1.00000
     27       2.5553      1.00000
     28       2.7735      1.00000
     29       2.8823      1.00000
     30       3.2154      1.00000
     31       3.2611      1.00000
     32       4.3967      1.00000
     33       5.8545      0.00000
     34       6.1268      0.00000
     35       6.2937      0.00000
     36       6.4234      0.00000
     37       6.9519      0.00000
     38       7.2812      0.00000
     39       7.3112      0.00000
     40       8.2014      0.00000
     41       8.2725      0.00000
     42       8.6919      0.00000
     43       8.8575      0.00000
     44       9.1156      0.00000

 k-point     3 :       0.3333    0.0000    0.0000
  band No.  band energies     occupation 
      1     -41.6027      1.00000
      2     -41.6022      1.00000
      3     -41.5941      1.00000
      4     -41.5941      1.00000
      5     -41.5773      1.00000
      6     -41.5767      1.00000
      7     -41.5760      1.00000
      8     -41.5758      1.00000
      9      -8.5244      1.00000
     10      -8.2615      1.00000
     11      -7.4244      1.00000
     12      -7.2692      1.00000
     13      -4.7507      1.00000
     14      -4.3818      1.00000
     15      -3.3980      1.00000
     16      -2.8838      1.00000
     17      -0.3524      1.00000
     18      -0.2330      1.00000
     19       0.1962      1.00000
     20       0.3168      1.00000
     21       0.4346      1.00000
     22       0.5614      1.00000
     23       1.0583      1.00000
     24       1.2997      1.00000
     25       1.7501      1.00000
     26       2.0722      1.00000
     27       2.5585      1.00000
     28       2.8227      1.00000
     29       2.9943      1.00000
[...]
      9      -8.6822      1.00000
     10      -8.6822      1.00000
     11      -6.1000      1.00000
     12      -6.1000      1.00000
     13      -6.0106      1.00000
     14      -6.0106      1.00000
     15      -2.0175      1.00000
     16      -2.0175      1.00000
     17      -0.8756      1.00000
     18      -0.8756      1.00000
     19       0.1315      1.00000
     20       0.1315      1.00000
     21       0.8518      1.00000
     22       0.8518      1.00000
     23       1.2710      1.00000
     24       1.2710      1.00000
     25       1.8728      1.00000
     26       1.8728      1.00000
     27       3.0161      1.00000
     28       3.0161      1.00000
     29       3.3607      1.00000
     30       3.3607      1.00000
     31       3.8739      1.00000
     32       3.8739      1.00000
     33       6.1467      0.00000
     34       6.1467      0.00000
     35       6.8649      0.00000
     36       6.8649      0.00000
     37       7.2575      0.00000
     38       7.2575      0.00000
     39       8.0355      0.00000
     40       8.0355      0.00000
     41       8.7095      0.00000
     42       8.7095      0.00000
     43       8.8900      0.00000
     44       8.8900      0.00000

 k-point    54 :       0.1667    0.5000    0.5000
  band No.  band energies     occupation 
      1     -41.5558      1.00000
      2     -41.5558      1.00000
      3     -41.5482      1.00000
      4     -41.5482      1.00000
      5     -41.5318      1.00000
      6     -41.5318      1.00000
      7     -41.5296      1.00000
      8     -41.5296      1.00000
      9      -8.5865      1.00000
     10      -8.5865      1.00000
     11      -6.6836      1.00000
     12      -6.6836      1.00000
     13      -5.4232      1.00000
     14      -5.4232      1.00000
     15      -2.4865      1.00000
     16      -2.4865      1.00000
     17      -0.4696      1.00000
     18      -0.4696      1.00000
     19      -0.1575      1.00000
     20      -0.1575      1.00000
     21       0.7505      1.00000
     22       0.7505      1.00000
     23       1.3959      1.00000
     24       1.3959      1.00000
     25       2.1587      1.00000
     26       2.1587      1.00000
     27       3.0217      1.00000
     28       3.0217      1.00000
     29       3.4062      1.00000
     30       3.4062      1.00000
     31       3.9742      1.00000
     32       3.9742      1.00000
     33       6.1579      0.00000
     34       6.1579      0.00000
     35       6.8514      0.00000
     36       6.8514      0.00000
     37       7.3069      0.00000
     38       7.3069      0.00000
     39       8.1073      0.00000
     40       8.1073      0.00000
     41       8.5259      0.00000
     42       8.5259      0.00000
     43       8.7989      0.00000
     44       8.7989      0.00000

 k-point    55 :       0.3333    0.5000    0.5000
  band No.  band energies     occupation 
      1     -41.5559      1.00000
      2     -41.5559      1.00000
      3     -41.5477      1.00000
      4     -41.5477      1.00000
      5     -41.5315      1.00000
      6     -41.5315      1.00000
      7     -41.5302      1.00000
      8     -41.5302      1.00000
      9      -8.3093      1.00000
     10      -8.3093      1.00000
     11      -7.2936      1.00000
     12      -7.2936      1.00000
     13      -4.7656      1.00000
     14      -4.7656      1.00000
     15      -3.2621      1.00000
     16      -3.2621      1.00000
     17      -0.4705      1.00000
     18      -0.4705      1.00000
     19       0.0911      1.00000
     20       0.0911      1.00000
     21       0.4153      1.00000
     22       0.4153      1.00000
     23       1.5281      1.00000
     24       1.5281      1.00000
     25       2.6172      1.00000
     26       2.6172      1.00000
     27       3.2155      1.00000
     28       3.2155      1.00000
     29       3.4637      1.00000
     30       3.4637      1.00000
     31       3.9865      1.00000
     32       3.9865      1.00000
     33       6.4186      0.00000
     34       6.4186      0.00000
     35       6.9273      0.00000
     36       6.9273      0.00000
     37       7.3301      0.00000
     38       7.3301      0.00000
     39       7.9016      0.00000
     40       7.9016      0.00000
     41       8.4788      0.00000
     42       8.4788      0.00000
     43       9.1439      0.00000
     44       9.1440      0.00000

 k-point    56 :       0.5000    0.5000    0.5000
  band No.  band energies     occupation 
      1     -41.5559      1.00000
      2     -41.5559      1.00000
      3     -41.5475      1.00000
      4     -41.5475      1.00000
      5     -41.5309      1.00000
      6     -41.5309      1.00000
      7     -41.5309      1.00000
      8     -41.5309      1.00000
      9      -7.9566      1.00000
     10      -7.9566      1.00000
     11      -7.7615      1.00000
     12      -7.7615      1.00000
     13      -4.1210      1.00000
     14      -4.1210      1.00000
     15      -3.9655      1.00000
     16      -3.9655      1.00000
     17      -0.4514      1.00000
     18      -0.4514      1.00000
     19      -0.1676      1.00000
     20      -0.1676      1.00000
     21       0.9892      1.00000
     22       0.9892      1.00000
     23       1.0884      1.00000
     24       1.0884      1.00000
     25       3.0939      1.00000
     26       3.0939      1.00000
     27       3.1112      1.00000
     28       3.1112      1.00000
     29       3.7005      1.00000
     30       3.7005      1.00000
     31       3.7653      1.00000
     32       3.7653      1.00000
     33       6.6612      0.00000
     34       6.6612      0.00000
     35       7.0650      0.00000
     36       7.0650      0.00000
     37       7.5417      0.00000
     38       7.5417      0.00000
     39       7.5769      0.00000
     40       7.5769      0.00000
     41       8.6126      0.00000
     42       8.6126      0.00000
     43       8.9578      0.00000
     44       8.9578      0.00000


--------------------------------------------------------------------------------------------------------


 soft charge-density along one line, spin component           1
         0         1         2         3         4         5         6         7         8         9
 total charge-density along one line
 
 soft charge-density along one line, spin component           2
         0         1         2         3         4         5         6         7         8         9
 total charge-density along one line
 
 pseudopotential strength for first ion, spin component:           1
-38.417   3.534  -0.000  -0.000   0.001
  3.534  -9.940  -0.000  -0.000   0.003
 -0.000  -0.000   0.173   0.000  -0.000
 -0.000  -0.000   0.000   0.173   0.000
  0.001   0.003  -0.000   0.000   0.173
 pseudopotential strength for first ion, spin component:           2
-38.417   3.534  -0.000  -0.000   0.001
  3.534  -9.940  -0.000  -0.000   0.003
 -0.000  -0.000   0.173   0.000  -0.000
 -0.000  -0.000   0.000   0.173   0.000
  0.001   0.003  -0.000   0.000   0.173
 total augmentation occupancy for first ion, spin component:           1
  2.000  -0.001   0.000  -0.000  -0.002
 -0.001   0.627   0.000   0.000   0.007
  0.000   0.000   0.023  -0.000   0.001
 -0.000   0.000  -0.000   0.023  -0.000
 -0.002   0.007   0.001  -0.000   0.025
 total augmentation occupancy for first ion, spin component:           2
 -0.000  -0.000   0.000   0.000  -0.000
 -0.000  -0.000   0.000   0.000   0.000
  0.000   0.000  -0.000  -0.000   0.000
  0.000   0.000  -0.000  -0.000   0.000
 -0.000   0.000   0.000   0.000  -0.000


------------------------ aborting loop because EDIFF is reached ----------------------------------------


 


 total charge     
 
# of ion       s       p       d       tot
------------------------------------------
    1        2.016   0.050   0.000   2.066
    2        2.015   0.051   0.000   2.066
    3        2.016   0.050   0.000   2.066
    4        2.015   0.051   0.000   2.066
    5        2.016   0.052   0.000   2.069
    6        2.016   0.052   0.000   2.068
    7        2.016   0.052   0.000   2.069
    8        2.016   0.052   0.000   2.068
    9        1.040   1.473   0.000   2.513
   10        1.038   1.466   0.000   2.504
   11        1.040   1.473   0.000   2.513
   12        1.038   1.466   0.000   2.504
   13        1.045   1.449   0.000   2.494
   14        1.045   1.444   0.000   2.489
   15        1.045   1.449   0.000   2.494
   16        1.045   1.444   0.000   2.489
--------------------------------------------------
tot         24.462  12.074   0.000  36.537
 


 magnetization (x)
 
# of ion       s       p       d       tot
------------------------------------------
    1        0.000  -0.000   0.000  -0.000
    2       -0.000  -0.000   0.000  -0.000
    3       -0.000  -0.000   0.000  -0.000
    4       -0.000  -0.000   0.000  -0.000
    5       -0.000   0.000   0.000   0.000
    6       -0.000   0.000   0.000   0.000
    7       -0.000   0.000   0.000   0.000
    8        0.000   0.000   0.000   0.000
    9        0.000  -0.000   0.000   0.000
   10        0.000   0.000   0.000   0.000
   11        0.000  -0.000   0.000  -0.000
   12        0.000   0.000   0.000   0.000
   13        0.000   0.000   0.000   0.000
   14       -0.000   0.000   0.000   0.000
   15       -0.000   0.000   0.000   0.000
   16       -0.000   0.000   0.000   0.000
--------------------------------------------------
tot         -0.000   0.000   0.000   0.000
 
    CHARGE:  cpu time    0.2837: real time    0.2838
    FORLOC:  cpu time    0.0047: real time    0.0047
    FORNL :  cpu time    1.2892: real time    1.2901
    STRESS:  cpu time    3.8747: real time    3.8787
    FORCOR:  cpu time    0.0610: real time    0.0610
    FORHAR:  cpu time    0.0097: real time    0.0097
    MIXING:  cpu time    0.0014: real time    0.0014
    OFIELD:  cpu time    0.0001: real time    0.0001

  FORCE on cell =-STRESS in cart. coord.  units (eV):
  Direction    XX          YY          ZZ          XY          YZ          ZX
  --------------------------------------------------------------------------------------
  Alpha Z    56.74286    56.74286    56.74286
  Ewald    -616.65184  -747.03730  -743.01944    -0.00000    -7.13858     0.00000
  Hartree   179.01041   113.26739   120.57913    -0.00000     0.55061    -0.00000
  E(xc)    -243.61034  -243.71463  -243.70798    -0.00000    -0.04594     0.00000
  Local    -472.90820  -278.12875  -291.23876    -0.00000     5.63257     0.00000
  n-local   327.37945   327.48551   326.88628    -0.41511    -0.03357     0.21096
  augment    61.39276    61.76774    61.73037    -0.00000    -0.07196    -0.00000
  Kinetic   708.60418   709.58119   711.96920    -0.93161     1.10372    -0.48674
  Fock        0.00000     0.00000     0.00000     0.00000     0.00000     0.00000
  -------------------------------------------------------------------------------------
  Total      -0.04074    -0.03598    -0.05832     0.00000    -0.00315     0.00000
  in kB      -0.26089    -0.23045    -0.37350     0.00000    -0.02017     0.00000
  external pressure =       -0.29 kB  Pullay stress =        0.00 kB


 VOLUME and BASIS-vectors are now :
 -----------------------------------------------------------------------------
  energy-cutoff  :      520.00
  volume of cell :      250.17
      direct lattice vectors                 reciprocal lattice vectors
     4.957430222  0.000000000  0.000000000     0.201717413  0.000000000  0.000000000
     0.000000000  5.588556033  0.000781117     0.000000000  0.178950486 -0.095784844
     0.000000000  4.833650452  9.030490256     0.000000000 -0.000015479  0.110744244

  length of vectors
     4.957430222  5.588556088 10.242750165     0.201717413  0.202972936  0.110744245


 FORCES acting on ions
    electron-ion (+dipol)            ewald-force                    non-local-force                 convergence-correction
 -----------------------------------------------------------------------------------------------
   0.158E+01 0.113E+02 0.251E+01   -.125E+01 -.113E+02 -.250E+01   -.325E+00 -.427E-02 -.763E-03   -.978E-04 0.962E-03 0.495E-03
   0.158E+01 -.113E+02 -.251E+01   -.125E+01 0.113E+02 0.250E+01   -.325E+00 0.427E-02 0.763E-03   -.978E-04 -.962E-03 -.495E-03
   -.158E+01 -.113E+02 -.251E+01   0.125E+01 0.113E+02 0.250E+01   0.325E+00 0.427E-02 0.763E-03   0.978E-04 -.962E-03 -.495E-03
   -.158E+01 0.113E+02 0.251E+01   0.125E+01 -.113E+02 -.250E+01   0.325E+00 -.427E-02 -.763E-03   0.978E-04 0.962E-03 0.495E-03
   -.191E+01 0.611E+01 -.140E+02   0.173E+01 -.602E+01 0.138E+02   0.174E+00 -.929E-01 0.253E+00   -.114E-03 0.269E-03 -.880E-03
   -.191E+01 -.611E+01 0.140E+02   0.173E+01 0.602E+01 -.138E+02   0.174E+00 0.929E-01 -.253E+00   -.114E-03 -.269E-03 0.880E-03
   0.191E+01 -.611E+01 0.140E+02   -.173E+01 0.602E+01 -.138E+02   -.174E+00 0.929E-01 -.253E+00   0.114E-03 -.269E-03 0.880E-03
   0.191E+01 0.611E+01 -.140E+02   -.173E+01 -.602E+01 0.138E+02   -.174E+00 -.929E-01 0.253E+00   0.114E-03 0.269E-03 -.880E-03
   -.320E+01 0.400E+02 0.917E+01   0.299E+01 -.447E+02 -.112E+02   0.201E+00 0.478E+01 0.201E+01   0.879E-04 0.228E-02 0.103E-02
   -.320E+01 -.400E+02 -.917E+01   0.299E+01 0.447E+02 0.112E+02   0.201E+00 -.478E+01 -.201E+01   0.879E-04 -.228E-02 -.103E-02
   0.320E+01 -.400E+02 -.917E+01   -.299E+01 0.447E+02 0.112E+02   -.201E+00 -.478E+01 -.201E+01   -.879E-04 -.228E-02 -.103E-02
   0.320E+01 0.400E+02 0.917E+01   -.299E+01 -.447E+02 -.112E+02   -.201E+00 0.478E+01 0.201E+01   -.879E-04 0.228E-02 0.103E-02
   0.208E+01 0.156E+02 -.374E+02   -.223E+01 -.169E+02 0.425E+02   0.150E+00 0.128E+01 -.514E+01   0.199E-03 0.683E-03 -.258E-02
   0.208E+01 -.156E+02 0.374E+02   -.223E+01 0.169E+02 -.425E+02   0.150E+00 -.128E+01 0.514E+01   0.199E-03 -.683E-03 0.258E-02
   -.208E+01 -.156E+02 0.374E+02   0.223E+01 0.169E+02 -.425E+02   -.150E+00 -.128E+01 0.514E+01   -.199E-03 -.683E-03 0.258E-02
   -.208E+01 0.156E+02 -.374E+02   0.223E+01 -.169E+02 0.425E+02   -.150E+00 0.128E+01 -.514E+01   -.199E-03 0.683E-03 -.258E-02
 -----------------------------------------------------------------------------------------------
   -.171E-09 -.578E-10 -.112E-09   -.888E-15 -.107E-13 -.355E-13   0.111E-15 -.222E-15 0.000E+00   0.524E-13 -.326E-12 -.647E-12
 
 
 POSITION                                       TOTAL-FORCE (eV/Angst)
 -----------------------------------------------------------------------------------
      3.03360      4.45543      6.05867        -0.001244      0.002275      0.006316
      0.55489      8.38361      7.48784        -0.001244     -0.002275     -0.006316
      1.92383      5.96678      2.97260         0.001244     -0.002275     -0.006316
      4.40254      2.03860      1.54343         0.001244      0.002275      0.006316
      1.69351      5.95160      8.75899        -0.000410     -0.001003     -0.007751
      4.17222      6.88743      4.78753        -0.000410      0.001003      0.007751
      3.26392      4.47061      0.27228         0.000410      0.001003      0.007751
      0.78521      3.53477      4.24374         0.000410     -0.001003     -0.007751
      0.51933      5.18488      6.38441        -0.003739      0.006573      0.002870
      2.99805      7.65415      7.16210        -0.003739     -0.006573     -0.002870
      4.43810      5.23733      2.64686         0.003739     -0.006573     -0.002870
      1.95938      2.76806      1.86917         0.003739      0.006573      0.002870
      4.18398      5.98755      8.02521         0.001026      0.001379     -0.006776
      1.70527      6.85148      5.52131         0.001026     -0.001379      0.006776
      0.77345      4.43466      1.00606        -0.001026     -0.001379      0.006776
      3.25216      3.57073      3.50996        -0.001026      0.001379     -0.006776
 -----------------------------------------------------------------------------------
    total drift:                               -0.000000     -0.000000     -0.000000


--------------------------------------------------------------------------------------------------------



  FREE ENERGIE OF THE ION-ELECTRON SYSTEM (eV)
  ---------------------------------------------------
  free  energy   TOTEN  =       -67.04075449 eV

  energy  without entropy=      -67.04075449  energy(sigma->0) =      -67.04075449
 
 d Force = 0.2236617E-04[ 0.215E-04, 0.233E-04]  d Energy = 0.1147971E-04 0.109E-04
 d Force =-0.3895403E-01[-0.390E-01,-0.389E-01]  d Ewald  =-0.4613916E+00 0.422E+00


--------------------------------------------------------------------------------------------------------


    POTLOK:  cpu time    0.3055: real time    0.3057


--------------------------------------------------------------------------------------------------------




--------------------------------------------------------------------------------------------------------


  
 reached required accuracy - stopping structural energy minimisation
     LOOP+:  cpu time   28.5011: real time   28.5242
    4ORBIT:  cpu time    0.0000: real time    0.0000
 


 total charge     
 
# of ion       s       p       d       tot
------------------------------------------
    1        2.016   0.050   0.000   2.066
    2        2.015   0.051   0.000   2.066
    3        2.016   0.050   0.000   2.066
    4        2.015   0.051   0.000   2.066
    5        2.016   0.052   0.000   2.069
    6        2.016   0.052   0.000   2.068
    7        2.016   0.052   0.000   2.069
    8        2.016   0.052   0.000   2.068
    9        1.040   1.473   0.000   2.513
   10        1.038   1.466   0.000   2.504
   11        1.040   1.473   0.000   2.513
   12        1.038   1.466   0.000   2.504
   13        1.045   1.449   0.000   2.494
   14        1.045   1.444   0.000   2.489
   15        1.045   1.449   0.000   2.494
   16        1.045   1.444   0.000   2.489
--------------------------------------------------
tot         24.462  12.074   0.000  36.537
 


 magnetization (x)
 
# of ion       s       p       d       tot
------------------------------------------
    1        0.000  -0.000   0.000  -0.000
    2       -0.000  -0.000   0.000  -0.000
    3       -0.000  -0.000   0.000  -0.000
    4       -0.000  -0.000   0.000  -0.000
    5       -0.000   0.000   0.000   0.000
    6       -0.000   0.000   0.000   0.000
    7       -0.000   0.000   0.000   0.000
    8        0.000   0.000   0.000   0.000
    9        0.000  -0.000   0.000   0.000
   10        0.000   0.000   0.000   0.000
   11        0.000  -0.000   0.000  -0.000
   12        0.000   0.000   0.000   0.000
   13        0.000   0.000   0.000   0.000
   14       -0.000   0.000   0.000   0.000
   15       -0.000   0.000   0.000   0.000
   16       -0.000   0.000   0.000   0.000
--------------------------------------------------
tot         -0.000   0.000   0.000   0.000
 
 BZINTS: Fermi energy:  4.784427; 64.000000 electrons
         Band energy:-701.734694;  BLOECHL correction:  0.000000

 total amount of memory used by VASP MPI-rank0    63714. kBytes
=======================================================================

   base      :      30000. kBytes
   nonlr-proj:       1683. kBytes
   fftplans  :       2440. kBytes
   grid      :       6234. kBytes
   one-center:         18. kBytes
   wavefun   :      23339. kBytes
 
  
  
 General timing and accounting informations for this job:
 ========================================================
  
                  Total CPU time used (sec):      325.274
                            User time (sec):      321.012
                          System time (sec):        4.263
                         Elapsed time (sec):      342.246
  
                   Maximum memory used (kb):      116136.
                   Average memory used (kb):           0.
  
                          Minor page faults:        60705
                          Major page faults:            0
                 Voluntary context switches:        55691
