 running on   12 total cores
 distrk:  each k-point on   12 cores,    1 groups
 distr:  one band on    6 cores,    2 groups
 using from now: INCAR     
 vasp.6.1.2 22Jul20 (build Mar 20 2021 11:25:07) complex                        
  
 POSCAR found type information on POSCAR LiP N 
 POSCAR found :  3 types and       8 ions
 scaLAPACK will be used
 -----------------------------------------------------------------------------
|                                                                             |
|               ----> ADVICE to this user running VASP <----                  |
|                                                                             |
|     You have a (more or less) 'small supercell' and for smaller cells       |
|     it is recommended to use the reciprocal-space projection scheme!        |
|     The real-space optimization is not efficient for small cells and it     |
|     is also less accurate ...                                               |
|     Therefore, set LREAL=.FALSE. in the INCAR file.                         |
|                                                                             |
 -----------------------------------------------------------------------------

 LDA part: xc-table for Pade appr. of Perdew
 generate k-points for:    8    8   10
 POSCAR, INCAR and KPOINTS ok, starting setup
 FFT: planning ...
 WAVECAR not read
 entering main loop
       N       E                     dE             d eps       ncg     rms          rms(c)
DAV:   1     0.206357133267E+03    0.20636E+03   -0.17291E+04 33696   0.136E+03
DAV:   2    -0.390180927873E+02   -0.24538E+03   -0.23689E+03 42100   0.320E+02
DAV:   3    -0.577680456811E+02   -0.18750E+02   -0.18655E+02 55542   0.811E+01
DAV:   4    -0.588595788504E+02   -0.10915E+01   -0.10879E+01 50728   0.163E+01
DAV:   5    -0.589284072281E+02   -0.68828E-01   -0.68823E-01 50264   0.299E+00    0.250E+01
RMM:   6    -0.529629671142E+02    0.59654E+01   -0.20553E+01 36839   0.214E+01    0.107E+01
RMM:   7    -0.533328044184E+02   -0.36984E+00   -0.47748E+00 50665   0.124E+01    0.551E+00
RMM:   8    -0.534232069613E+02   -0.90403E-01   -0.69636E-01 55985   0.531E+00    0.308E+00
RMM:   9    -0.534274715821E+02   -0.42646E-02   -0.23269E-01 52374   0.333E+00    0.975E-01
RMM:  10    -0.534370328387E+02   -0.95613E-02   -0.10681E-01 59884   0.198E+00    0.381E-01
RMM:  11    -0.534398838167E+02   -0.28510E-02   -0.56851E-02 61745   0.113E+00    0.214E-01
RMM:  12    -0.534429114848E+02   -0.30277E-02   -0.25148E-02 65343   0.729E-01    0.164E-01
RMM:  13    -0.534440246538E+02   -0.11132E-02   -0.96201E-03 64127   0.445E-01    0.539E-02
RMM:  14    -0.534444679457E+02   -0.44329E-03   -0.38261E-03 64523   0.301E-01    0.397E-02
RMM:  15    -0.534446708151E+02   -0.20287E-03   -0.17484E-03 63986   0.203E-01    0.196E-02
RMM:  16    -0.534447510105E+02   -0.80195E-04   -0.75855E-04 63067   0.134E-01    0.936E-03
RMM:  17    -0.534447935614E+02   -0.42551E-04   -0.37058E-04 61698   0.935E-02    0.657E-03
RMM:  18    -0.534448097741E+02   -0.16213E-04   -0.14772E-04 55003   0.656E-02    0.276E-03
RMM:  19    -0.534448148052E+02   -0.50311E-05   -0.46870E-05 42992   0.507E-02
   1 F= -.53444815E+02 E0= -.53444815E+02  d E =0.000000E+00  mag=     0.0000
