 vasp.5.4.4.18Apr17-6-g9f103f2a35 (build Aug 12 2020 11:57:02) complex          
  
 executed on             LinuxIFC date 2021.01.31  03:17:10
 running on   24 total cores
 distrk:  each k-point on   24 cores,    1 groups
 distr:  one band on NCORES_PER_BAND=   6 cores,    4 groups


--------------------------------------------------------------------------------------------------------


 INCAR:
 POTCAR:    PAW_PBE Li_sv 10Sep2004               
 POTCAR:    PAW_PBE N 08Apr2002                   
 POTCAR:    PAW_PBE Li_sv 10Sep2004               
   VRHFIN =Li: 1s2s2p                                                           
   LEXCH  = PE                                                                  
   EATOM  =   202.7858 eV,   14.9043 Ry                                         
                                                                                
   TITEL  = PAW_PBE Li_sv 10Sep2004                                             
   LULTRA =        F    use ultrasoft PP ?                                      
   IUNSCR =        0    unscreen: 0-lin 1-nonlin 2-no                           
   RPACOR =    0.000    partial core radius                                     
   POMASS =    7.010; ZVAL   =    3.000    mass and valenz                      
   RCORE  =    1.700    outmost cutoff radius                                   
   RWIGS  =    2.050; RWIGS  =    1.085    wigner-seitz radius (au A)           
   ENMAX  =  499.034; ENMIN  =  374.276 eV                                      
   ICORE  =        2    local potential                                         
   LCOR   =        T    correct aug charges                                     
   LPAW   =        T    paw PP                                                  
   EAUG   =  628.945                                                            
   RMAX   =    1.732    core radius for proj-oper                               
   RAUG   =    1.300    factor for augmentation sphere                          
   RDEP   =    1.728    radius for radial grids                                 
   RDEPT  =    1.329    core radius for aug-charge                              
                                                                                
   Atomic configuration                                                         
    4 entries                                                                   
     n  l   j            E        occ.                                          
     1  0  0.50       -51.8549   2.0000                                         
     2  0  0.50        -2.8742   1.0000                                         
     2  1  0.50        -1.3606   0.0000                                         
     3  2  1.50        -1.3606   0.0000                                         
   Description                                                                  
     l       E           TYP  RCUT    TYP  RCUT                                 
     0    -51.8548813     23  1.400                                             
     0     -2.8742052     23  1.700                                             
     1     -1.3605826     23  1.400                                             
     2     -1.3605826     23  1.400                                             
  local pseudopotential read in
  atomic valenz-charges read in
  non local Contribution for L=           0  read in
    real space projection operators read in
  non local Contribution for L=           0  read in
    real space projection operators read in
  non local Contribution for L=           1  read in
    real space projection operators read in
    PAW grid and wavefunctions read in
 
   number of l-projection  operators is LMAX  =           3
   number of lm-projection operators is LMMAX =           5
 
 POTCAR:    PAW_PBE N 08Apr2002                   
   VRHFIN =N: s2p3                                                              
   LEXCH  = PE                                                                  
   EATOM  =   264.5486 eV,   19.4438 Ry                                         
                                                                                
   TITEL  = PAW_PBE N 08Apr2002                                                 
   LULTRA =        F    use ultrasoft PP ?                                      
   IUNSCR =        1    unscreen: 0-lin 1-nonlin 2-no                           
   RPACOR =    1.200    partial core radius                                     
   POMASS =   14.001; ZVAL   =    5.000    mass and valenz                      
   RCORE  =    1.500    outmost cutoff radius                                   
   RWIGS  =    1.400; RWIGS  =    0.741    wigner-seitz radius (au A)           
   ENMAX  =  400.000; ENMIN  =  300.000 eV                                      
   ICORE  =        2    local potential                                         
   LCOR   =        T    correct aug charges                                     
   LPAW   =        T    paw PP                                                  
   EAUG   =  627.112                                                            
   DEXC   =    0.000                                                            
   RMAX   =    1.529    core radius for proj-oper                               
   RAUG   =    1.300    factor for augmentation sphere                          
   RDEP   =    1.514    radius for radial grids                                 
   RDEPT  =    1.338    core radius for aug-charge                              
                                                                                
   Atomic configuration                                                         
    4 entries                                                                   
     n  l   j            E        occ.                                          
     1  0  0.50      -384.7179   2.0000                                         
     2  0  0.50       -18.5828   2.0000                                         
     2  1  0.50        -7.0898   3.0000                                         
     3  2  1.50        -6.8029   0.0000                                         
   Description                                                                  
     l       E           TYP  RCUT    TYP  RCUT                                 
     0    -18.5828119     23  1.200                                             
     0    -13.5018863     23  1.200                                             
     1     -7.0897853     23  1.500                                             
     1      9.5240782     23  1.500                                             
     2     -6.8029130      7  1.500                                             
  local pseudopotential read in
  partial core-charges read in
  partial kinetic energy density read in
  atomic valenz-charges read in
  non local Contribution for L=           0  read in
    real space projection operators read in
  non local Contribution for L=           0  read in
    real space projection operators read in
  non local Contribution for L=           1  read in
    real space projection operators read in
  non local Contribution for L=           1  read in
    real space projection operators read in
    PAW grid and wavefunctions read in
 
   number of l-projection  operators is LMAX  =           4
   number of lm-projection operators is LMMAX =           8
 

 ----------------------------------------------------------------------------- 
|                                                                             |
|  ADVICE TO THIS USER RUNNING 'VASP/VAMP'   (HEAR YOUR MASTER'S VOICE ...):  |
|                                                                             |
|      You have a (more or less) 'small supercell' and for smaller cells      |
|      it is recommended  to use the reciprocal-space projection scheme!      |
|      The real space optimization is not  efficient for small cells and it   |
|      is also less accurate ...                                              |
|      Therefore set LREAL=.FALSE. in the  INCAR file                         |
|                                                                             |
 ----------------------------------------------------------------------------- 

 Optimization of the real space projectors (new method)

 maximal supplied QI-value         = 22.11
 optimisation between [QCUT,QGAM] = [ 11.50, 23.22] = [ 37.02,150.92] Ry 
 Optimized for a Real-space Cutoff    1.08 Angstroem

   l    n(q)    QCUT    max X(q) W(low)/X(q) W(high)/X(q)  e(spline) 
   0      7    11.497    10.506    0.36E-04    0.62E-04    0.14E-07
   0      7    11.497     8.367    0.65E-04    0.14E-03    0.28E-07
   1      7    11.497     8.983    0.21E-03    0.43E-03    0.90E-07
 Optimization of the real space projectors (new method)

 maximal supplied QI-value         = 25.13
 optimisation between [QCUT,QGAM] = [ 11.56, 23.12] = [ 37.43,149.72] Ry 
 Optimized for a Real-space Cutoff    1.40 Angstroem

   l    n(q)    QCUT    max X(q) W(low)/X(q) W(high)/X(q)  e(spline) 
   0     10    11.561    79.467    0.46E-04    0.78E-04    0.61E-06
   0     10    11.561    66.151    0.45E-04    0.77E-04    0.61E-06
   1      9    11.561    18.886    0.22E-03    0.13E-03    0.12E-05
   1      9    11.561    13.488    0.23E-03    0.13E-03    0.12E-05
  PAW_PBE Li_sv 10Sep2004               :
 energy of atom  1       EATOM= -202.7858
 kinetic energy error for atom=    0.0130 (will be added to EATOM!!)
  PAW_PBE N 08Apr2002                   :
 energy of atom  2       EATOM= -264.5486
 kinetic energy error for atom=    0.0125 (will be added to EATOM!!)
 
 
 POSCAR: Li3 N1                                  
  positions in direct lattice
  No initial velocities read in
 exchange correlation table for  LEXCH =        8
   RHO(1)=    0.500       N(1)  =     2000
   RHO(2)=  100.500       N(2)  =     4000
 


--------------------------------------------------------------------------------------------------------


 ion  position               nearest neighbor table
   1  0.000  0.000  0.500-   4 1.94   4 1.94
   2  0.333  0.667  0.000-   4 2.11   3 2.11   3 2.11   4 2.11   4 2.11   3 2.11
   3  0.667  0.333  0.000-   4 2.11   2 2.11   2 2.11   4 2.11   4 2.11   2 2.11
   4  0.000  0.000  0.000-   1 1.94   1 1.94   3 2.11   2 2.11   3 2.11   2 2.11   3 2.11   2 2.11

 
  LATTYP: Found a hexagonal cell.
 ALAT       =     3.6506900000
 C/A-ratio  =     1.0651780896
  
  Lattice vectors:
  
 A1 = (   1.8253450000,  -3.1615900000,   0.0000000000)
 A2 = (   1.8253450000,   3.1615900000,   0.0000000000)
 A3 = (   0.0000000000,   0.0000000000,   3.8886350000)


Analysis of symmetry for initial positions (statically):
=====================================================================
 Subroutine PRICEL returns:
 Original cell was already a primitive cell.
 

 Routine SETGRP: Setting up the symmetry group for a 
 hexagonal supercell.


 Subroutine GETGRP returns: Found 24 space group operations
 (whereof 24 operations were pure point group operations)
 out of a pool of 24 trial point group operations.


The static configuration has the point symmetry D_6h.


Analysis of symmetry for dynamics (positions and initial velocities):
=====================================================================
 Subroutine PRICEL returns:
 Original cell was already a primitive cell.
 

 Routine SETGRP: Setting up the symmetry group for a 
 hexagonal supercell.


 Subroutine GETGRP returns: Found 24 space group operations
 (whereof 24 operations were pure point group operations)
 out of a pool of 24 trial point group operations.


The dynamic configuration has the point symmetry D_6h.


Analysis of structural, dynamic, and magnetic symmetry:
=====================================================================
 Subroutine PRICEL returns:
 Original cell was already a primitive cell.
 

 Routine SETGRP: Setting up the symmetry group for a 
 hexagonal supercell.


 Subroutine GETGRP returns: Found 24 space group operations
 (whereof 24 operations were pure point group operations)
 out of a pool of 24 trial point group operations.


The magnetic configuration has the point symmetry D_6h.


 Subroutine INISYM returns: Found 24 space group operations
 (whereof 24 operations are pure point group operations),
 and found     1 'primitive' translations

 
 
 KPOINTS: Fully automatic kpoint scheme           

Automatic generation of k-mesh.
 generate k-points for:   10   10    8
Space group operators:
 irot       det(A)        alpha          n_x          n_y          n_z        tau_x        tau_y        tau_z
    1     1.000000     0.000001     1.000000     0.000000     0.000000     0.000000     0.000000     0.000000
    2    -1.000000     0.000001     1.000000     0.000000     0.000000     0.000000     0.000000     0.000000
    3     1.000000    60.000000     0.000000     0.000000    -1.000000     0.000000     0.000000     0.000000
    4    -1.000000    60.000000     0.000000     0.000000    -1.000000     0.000000     0.000000     0.000000
    5     1.000000   120.000000     0.000000     0.000000    -1.000000     0.000000     0.000000     0.000000
    6    -1.000000   120.000000     0.000000     0.000000    -1.000000     0.000000     0.000000     0.000000
    7     1.000000   180.000000     0.000000     0.000000     1.000000     0.000000     0.000000     0.000000
    8    -1.000000   180.000000     0.000000     0.000000     1.000000     0.000000     0.000000     0.000000
    9     1.000000   120.000000     0.000000     0.000000     1.000000     0.000000     0.000000     0.000000
   10    -1.000000   120.000000     0.000000     0.000000     1.000000     0.000000     0.000000     0.000000
   11     1.000000    60.000000     0.000000     0.000000     1.000000     0.000000     0.000000     0.000000
   12    -1.000000    60.000000     0.000000     0.000000     1.000000     0.000000     0.000000     0.000000
   13     1.000000   180.000000     0.500000    -0.866025     0.000000     0.000000     0.000000     0.000000
   14    -1.000000   180.000000     0.500000    -0.866025     0.000000     0.000000     0.000000     0.000000
   15     1.000000   180.000000     0.000000     1.000000     0.000000     0.000000     0.000000     0.000000
   16    -1.000000   180.000000     0.000000     1.000000     0.000000     0.000000     0.000000     0.000000
   17     1.000000   180.000000    -0.500000    -0.866025     0.000000     0.000000     0.000000     0.000000
   18    -1.000000   180.000000    -0.500000    -0.866025     0.000000     0.000000     0.000000     0.000000
   19     1.000000   180.000000     0.866025     0.500000     0.000000     0.000000     0.000000     0.000000
   20    -1.000000   180.000000     0.866025     0.500000     0.000000     0.000000     0.000000     0.000000
   21     1.000000   180.000000     1.000000     0.000000     0.000000     0.000000     0.000000     0.000000
   22    -1.000000   180.000000     1.000000     0.000000     0.000000     0.000000     0.000000     0.000000
   23     1.000000   180.000000     0.866025    -0.500000     0.000000     0.000000     0.000000     0.000000
   24    -1.000000   180.000000     0.866025    -0.500000     0.000000     0.000000     0.000000     0.000000
 
 Subroutine IBZKPT returns following result:
 ===========================================
 
 Found     70 irreducible k-points:
 
 Following reciprocal coordinates:
            Coordinates               Weight
  0.000000  0.000000  0.000000      1.000000
  0.100000  0.000000  0.000000      6.000000
  0.200000  0.000000  0.000000      6.000000
  0.300000  0.000000  0.000000      6.000000
  0.400000  0.000000  0.000000      6.000000
  0.500000  0.000000  0.000000      3.000000
  0.100000  0.100000  0.000000      6.000000
  0.200000  0.100000  0.000000     12.000000
  0.300000  0.100000  0.000000     12.000000
  0.400000  0.100000  0.000000     12.000000
  0.200000  0.200000  0.000000      6.000000
  0.300000  0.200000  0.000000     12.000000
  0.400000  0.200000  0.000000      6.000000
  0.300000  0.300000  0.000000      6.000000
  0.000000  0.000000  0.125000      2.000000
  0.100000  0.000000  0.125000     12.000000
  0.200000  0.000000  0.125000     12.000000
  0.300000  0.000000  0.125000     12.000000
  0.400000  0.000000  0.125000     12.000000
  0.500000  0.000000  0.125000      6.000000
  0.100000  0.100000  0.125000     12.000000
  0.200000  0.100000  0.125000     24.000000
  0.300000  0.100000  0.125000     24.000000
  0.400000  0.100000  0.125000     24.000000
  0.200000  0.200000  0.125000     12.000000
  0.300000  0.200000  0.125000     24.000000
  0.400000  0.200000  0.125000     12.000000
  0.300000  0.300000  0.125000     12.000000
  0.000000  0.000000  0.250000      2.000000
  0.100000  0.000000  0.250000     12.000000
  0.200000  0.000000  0.250000     12.000000
  0.300000  0.000000  0.250000     12.000000
  0.400000  0.000000  0.250000     12.000000
  0.500000  0.000000  0.250000      6.000000
  0.100000  0.100000  0.250000     12.000000
  0.200000  0.100000  0.250000     24.000000
  0.300000  0.100000  0.250000     24.000000
  0.400000  0.100000  0.250000     24.000000
  0.200000  0.200000  0.250000     12.000000
  0.300000  0.200000  0.250000     24.000000
  0.400000  0.200000  0.250000     12.000000
  0.300000  0.300000  0.250000     12.000000
  0.000000  0.000000  0.375000      2.000000
  0.100000  0.000000  0.375000     12.000000
  0.200000  0.000000  0.375000     12.000000
  0.300000  0.000000  0.375000     12.000000
  0.400000  0.000000  0.375000     12.000000
  0.500000  0.000000  0.375000      6.000000
  0.100000  0.100000  0.375000     12.000000
  0.200000  0.100000  0.375000     24.000000
  0.300000  0.100000  0.375000     24.000000
  0.400000  0.100000  0.375000     24.000000
  0.200000  0.200000  0.375000     12.000000
  0.300000  0.200000  0.375000     24.000000
  0.400000  0.200000  0.375000     12.000000
  0.300000  0.300000  0.375000     12.000000
  0.000000  0.000000  0.500000      1.000000
  0.100000  0.000000  0.500000      6.000000
  0.200000  0.000000  0.500000      6.000000
  0.300000  0.000000  0.500000      6.000000
  0.400000  0.000000  0.500000      6.000000
  0.500000  0.000000  0.500000      3.000000
  0.100000  0.100000  0.500000      6.000000
  0.200000  0.100000  0.500000     12.000000
  0.300000  0.100000  0.500000     12.000000
  0.400000  0.100000  0.500000     12.000000
  0.200000  0.200000  0.500000      6.000000
  0.300000  0.200000  0.500000     12.000000
  0.400000  0.200000  0.500000      6.000000
  0.300000  0.300000  0.500000      6.000000
 
 Following cartesian coordinates:
            Coordinates               Weight
  0.000000  0.000000  0.000000      1.000000
  0.027392 -0.015815  0.000000      6.000000
  0.054784 -0.031630  0.000000      6.000000
  0.082176 -0.047444  0.000000      6.000000
  0.109568 -0.063259  0.000000      6.000000
  0.136960 -0.079074  0.000000      3.000000
  0.054784  0.000000  0.000000      6.000000
  0.082176 -0.015815  0.000000     12.000000
  0.109568 -0.031630  0.000000     12.000000
  0.136960 -0.047444  0.000000     12.000000
  0.109568  0.000000  0.000000      6.000000
  0.136960 -0.015815  0.000000     12.000000
  0.164352 -0.031630  0.000000      6.000000
  0.164352  0.000000  0.000000      6.000000
  0.000000  0.000000  0.032145      2.000000
  0.027392 -0.015815  0.032145     12.000000
  0.054784 -0.031630  0.032145     12.000000
  0.082176 -0.047444  0.032145     12.000000
  0.109568 -0.063259  0.032145     12.000000
  0.136960 -0.079074  0.032145      6.000000
  0.054784  0.000000  0.032145     12.000000
  0.082176 -0.015815  0.032145     24.000000
  0.109568 -0.031630  0.032145     24.000000
  0.136960 -0.047444  0.032145     24.000000
  0.109568  0.000000  0.032145     12.000000
  0.136960 -0.015815  0.032145     24.000000
  0.164352 -0.031630  0.032145     12.000000
  0.164352  0.000000  0.032145     12.000000
  0.000000  0.000000  0.064290      2.000000
  0.027392 -0.015815  0.064290     12.000000
  0.054784 -0.031630  0.064290     12.000000
  0.082176 -0.047444  0.064290     12.000000
  0.109568 -0.063259  0.064290     12.000000
  0.136960 -0.079074  0.064290      6.000000
  0.054784  0.000000  0.064290     12.000000
  0.082176 -0.015815  0.064290     24.000000
  0.109568 -0.031630  0.064290     24.000000
  0.136960 -0.047444  0.064290     24.000000
  0.109568  0.000000  0.064290     12.000000
  0.136960 -0.015815  0.064290     24.000000
  0.164352 -0.031630  0.064290     12.000000
  0.164352  0.000000  0.064290     12.000000
  0.000000  0.000000  0.096435      2.000000
  0.027392 -0.015815  0.096435     12.000000
  0.054784 -0.031630  0.096435     12.000000
  0.082176 -0.047444  0.096435     12.000000
  0.109568 -0.063259  0.096435     12.000000
  0.136960 -0.079074  0.096435      6.000000
  0.054784  0.000000  0.096435     12.000000
  0.082176 -0.015815  0.096435     24.000000
  0.109568 -0.031630  0.096435     24.000000
  0.136960 -0.047444  0.096435     24.000000
  0.109568  0.000000  0.096435     12.000000
  0.136960 -0.015815  0.096435     24.000000
  0.164352 -0.031630  0.096435     12.000000
  0.164352  0.000000  0.096435     12.000000
  0.000000  0.000000  0.128580      1.000000
  0.027392 -0.015815  0.128580      6.000000
  0.054784 -0.031630  0.128580      6.000000
  0.082176 -0.047444  0.128580      6.000000
  0.109568 -0.063259  0.128580      6.000000
  0.136960 -0.079074  0.128580      3.000000
  0.054784  0.000000  0.128580      6.000000
  0.082176 -0.015815  0.128580     12.000000
  0.109568 -0.031630  0.128580     12.000000
  0.136960 -0.047444  0.128580     12.000000
  0.109568  0.000000  0.128580      6.000000
  0.136960 -0.015815  0.128580     12.000000
  0.164352 -0.031630  0.128580      6.000000
  0.164352  0.000000  0.128580      6.000000
 
 TETIRR: Found    840 inequivalent tetrahedra from     4800


--------------------------------------------------------------------------------------------------------




 Dimension of arrays:
   k-points           NKPTS =     70   k-points in BZ     NKDIM =     70   number of bands    NBANDS=     12
   number of dos      NEDOS =    301   number of ions     NIONS =      4
   non local maximal  LDIM  =      4   non local SUM 2l+1 LMDIM =      8
   total plane-waves  NPLWV =  23520
   max r-space proj   IRMAX =   6120   max aug-charges    IRDMAX=   6647
   dimension x,y,z NGX =    28 NGY =   28 NGZ =   30
   dimension x,y,z NGXF=    56 NGYF=   56 NGZF=   60
   support grid    NGXF=    56 NGYF=   56 NGZF=   60
   ions per type =               3   1
   NGX,Y,Z   is equivalent  to a cutoff of  12.75, 12.75, 12.83 a.u.
   NGXF,Y,Z  is equivalent  to a cutoff of  25.50, 25.50, 25.65 a.u.

 SYSTEM =  unknown system                          
 POSCAR =  Li3 N1                                  

 Startparameter for this run:
   NWRITE =      2    write-flag & timer
   PREC   = accura    normal or accurate (medium, high low for compatibility)
   ISTART =      0    job   : 0-new  1-cont  2-samecut
   ICHARG =      2    charge: 1-file 2-atom 10-const
   ISPIN  =      2    spin polarized calculation?
   LNONCOLLINEAR =      F non collinear calculations
   LSORBIT =      F    spin-orbit coupling
   INIWAV =      1    electr: 0-lowe 1-rand  2-diag
   LASPH  =      T    aspherical Exc in radial PAW
   METAGGA=      F    non-selfconsistent MetaGGA calc.

 Electronic Relaxation 1
   ENCUT  =  520.0 eV  38.22 Ry    6.18 a.u.   6.79  6.79  7.23*2*pi/ulx,y,z
   ENINI  =  520.0     initial cutoff
   ENAUG  =  628.9 eV  augmentation charge cutoff
   NELM   =    100;   NELMIN=  2; NELMDL= -5     # of ELM steps 
   EDIFF  = 0.1E-04   stopping-criterion for ELM
   LREAL  =      T    real-space projection
   NLSPLINE    = F    spline interpolate recip. space projectors
   LCOMPAT=      F    compatible to vasp.4.4
   GGA_COMPAT  = T    GGA compatible to vasp.4.4-vasp.4.6
   LMAXPAW     = -100 max onsite density
   LMAXMIX     =    2 max onsite mixed and CHGCAR
   VOSKOWN=      0    Vosko Wilk Nusair interpolation
   ROPT   =   -0.00025  -0.00025
 Ionic relaxation
   EDIFFG = 0.1E-03   stopping-criterion for IOM
   NSW    =     99    number of steps for IOM
   NBLOCK =      1;   KBLOCK =     99    inner block; outer block 
   IBRION =      2    ionic relax: 0-MD 1-quasi-New 2-CG
   NFREE  =      1    steps in history (QN), initial steepest desc. (CG)
   ISIF   =      3    stress and relaxation
   IWAVPR =     11    prediction:  0-non 1-charg 2-wave 3-comb
   ISYM   =      2    0-nonsym 1-usesym 2-fastsym
   LCORR  =      T    Harris-Foulkes like correction to forces

   POTIM  = 0.5000    time-step for ionic-motion
   TEIN   =    0.0    initial temperature
   TEBEG  =    0.0;   TEEND  =   0.0 temperature during run
   SMASS  =  -3.00    Nose mass-parameter (am)
   estimated Nose-frequenzy (Omega)   =  0.10E-29 period in steps =****** mass=  -0.305E-27a.u.
   SCALEE = 1.0000    scale energy and forces
   NPACO  =    256;   APACO  = 16.0  distance and # of slots for P.C.
   PSTRESS=    0.0 pullay stress

  Mass of Ions in am
   POMASS =   7.01 14.00
  Ionic Valenz
   ZVAL   =   3.00  5.00
  Atomic Wigner-Seitz radii
   RWIGS  =  -1.00 -1.00
  virtual crystal weights 
   VCA    =   1.00  1.00
   NELECT =      14.0000    total number of electrons
   NUPDOWN=      -1.0000    fix difference up-down

 DOS related values:
   EMIN   =  10.00;   EMAX   =-10.00  energy-range for DOS
   EFERMI =   0.00
   ISMEAR =    -5;   SIGMA  =   0.05  broadening in eV -4-tet -1-fermi 0-gaus

 Electronic relaxation 2 (details)
   IALGO  =     68    algorithm
   LDIAG  =      T    sub-space diagonalisation (order eigenvalues)
   LSUBROT=      F    optimize rotation matrix (better conditioning)
   TURBO    =      0    0=normal 1=particle mesh
   IRESTART =      0    0=no restart 2=restart with 2 vectors
   NREBOOT  =      0    no. of reboots
   NMIN     =      0    reboot dimension
   EREF     =   0.00    reference energy to select bands
   IMIX   =      4    mixing-type and parameters
     AMIX     =   0.40;   BMIX     =  1.00
     AMIX_MAG =   1.60;   BMIX_MAG =  1.00
     AMIN     =   0.10
     WC   =   100.;   INIMIX=   1;  MIXPRE=   1;  MAXMIX= -45

 Intra band minimization:
   WEIMIN = 0.0010     energy-eigenvalue tresh-hold
   EBREAK =  0.21E-06  absolut break condition
   DEPER  =   0.30     relativ break condition  

   TIME   =   0.40     timestep for ELM

  volume/ion in A,a.u.               =      11.22        75.72
  Fermi-wavevector in a.u.,A,eV,Ry     =   1.110261  2.098088 16.771612  1.232679
  Thomas-Fermi vector in A             =   2.246810
 
 Write flags
   LWAVE        =      F    write WAVECAR
   LDOWNSAMPLE  =      F    k-point downsampling of WAVECAR
   LCHARG       =      F    write CHGCAR
   LVTOT        =      F    write LOCPOT, total local potential
   LVHAR        =      F    write LOCPOT, Hartree potential only
   LELF         =      F    write electronic localiz. function (ELF)
   LORBIT       =     11    0 simple, 1 ext, 2 COOP (PROOUT), +10 PAW based schemes


 Dipole corrections
   LMONO  =      F    monopole corrections only (constant potential shift)
   LDIPOL =      F    correct potential (dipole corrections)
   IDIPOL =      0    1-x, 2-y, 3-z, 4-all directions 
   EPSILON=  1.0000000 bulk dielectric constant

 Exchange correlation treatment:
   GGA     =    --    GGA type
   LEXCH   =     8    internal setting for exchange type
   VOSKOWN=      0    Vosko Wilk Nusair interpolation
   LHFCALC =     F    Hartree Fock is set to
   LHFONE  =     F    Hartree Fock one center treatment
   AEXX    =    0.0000 exact exchange contribution

 Linear response parameters
   LEPSILON=     F    determine dielectric tensor
   LRPA    =     F    only Hartree local field effects (RPA)
   LNABLA  =     F    use nabla operator in PAW spheres
   LVEL    =     F    velocity operator in full k-point grid
   LINTERFAST=   F  fast interpolation
   KINTER  =     0    interpolate to denser k-point grid
   CSHIFT  =0.1000    complex shift for real part using Kramers Kronig
   OMEGAMAX=  -1.0    maximum frequency
   DEG_THRESHOLD= 0.2000000E-02 threshold for treating states as degnerate
   RTIME   =   -0.100 relaxation time in fs
  (WPLASMAI=    0.000 imaginary part of plasma frequency in eV, 0.658/RTIME)
   DFIELD  = 0.0000000 0.0000000 0.0000000 field for delta impulse in time
 
 Orbital magnetization related:
   ORBITALMAG=     F  switch on orbital magnetization
   LCHIMAG   =     F  perturbation theory with respect to B field
   DQ        =  0.001000  dq finite difference perturbation B field
   LLRAUG    =     F  two centre corrections for induced B field



--------------------------------------------------------------------------------------------------------


 conjugate gradient relaxation of ions
 charge density and potential will be updated during run
 spin polarized calculation
 RMM-DIIS sequential band-by-band and
  variant of blocked Davidson during initial phase
 perform sub-space diagonalisation
    before iterative eigenvector-optimisation
 modified Broyden-mixing scheme, WC =      100.0
 initial mixing is a Kerker type mixing with AMIX =  0.4000 and BMIX =      1.0000
 Hartree-type preconditioning will be used
 using additional bands            5
 real space projection scheme for non local part
 use partial core corrections
 calculate Harris-corrections to forces 
   (improved forces if not selfconsistent)
 use gradient corrections 
 use of overlap-Matrix (Vanderbilt PP)
 Fermi weights with tetrahedron method with Bloechl corrections


--------------------------------------------------------------------------------------------------------


  energy-cutoff  :      520.00
  volume of cell :       44.88
      direct lattice vectors                 reciprocal lattice vectors
     1.825345000 -3.161590000  0.000000000     0.273920820 -0.158148273  0.000000000
     1.825345000  3.161590000  0.000000000     0.273920820  0.158148273  0.000000000
     0.000000000  0.000000000  3.888635000     0.000000000  0.000000000  0.257159646

  length of vectors
     3.650689756  3.650689756  3.888635000     0.316296526  0.316296526  0.257159646


 
 k-points in units of 2pi/SCALE and weight: Fully automatic kpoint scheme           
   0.00000000  0.00000000  0.00000000       0.001
   0.02739208 -0.01581483  0.00000000       0.007
   0.05478416 -0.03162965  0.00000000       0.007
   0.08217625 -0.04744448  0.00000000       0.007
   0.10956833 -0.06325931  0.00000000       0.007
   0.13696041 -0.07907414  0.00000000       0.004
   0.05478416  0.00000000  0.00000000       0.007
   0.08217625 -0.01581483  0.00000000       0.015
   0.10956833 -0.03162965  0.00000000       0.015
   0.13696041 -0.04744448  0.00000000       0.015
   0.10956833  0.00000000  0.00000000       0.007
   0.13696041 -0.01581483  0.00000000       0.015
   0.16435249 -0.03162965  0.00000000       0.007
   0.16435249  0.00000000  0.00000000       0.007
   0.00000000  0.00000000  0.03214496       0.003
   0.02739208 -0.01581483  0.03214496       0.015
   0.05478416 -0.03162965  0.03214496       0.015
   0.08217625 -0.04744448  0.03214496       0.015
   0.10956833 -0.06325931  0.03214496       0.015
   0.13696041 -0.07907414  0.03214496       0.007
   0.05478416  0.00000000  0.03214496       0.015
   0.08217625 -0.01581483  0.03214496       0.030
   0.10956833 -0.03162965  0.03214496       0.030
   0.13696041 -0.04744448  0.03214496       0.030
   0.10956833  0.00000000  0.03214496       0.015
   0.13696041 -0.01581483  0.03214496       0.030
   0.16435249 -0.03162965  0.03214496       0.015
   0.16435249  0.00000000  0.03214496       0.015
   0.00000000  0.00000000  0.06428991       0.003
   0.02739208 -0.01581483  0.06428991       0.015
   0.05478416 -0.03162965  0.06428991       0.015
   0.08217625 -0.04744448  0.06428991       0.015
   0.10956833 -0.06325931  0.06428991       0.015
   0.13696041 -0.07907414  0.06428991       0.007
   0.05478416  0.00000000  0.06428991       0.015
   0.08217625 -0.01581483  0.06428991       0.030
   0.10956833 -0.03162965  0.06428991       0.030
   0.13696041 -0.04744448  0.06428991       0.030
   0.10956833  0.00000000  0.06428991       0.015
   0.13696041 -0.01581483  0.06428991       0.030
   0.16435249 -0.03162965  0.06428991       0.015
   0.16435249  0.00000000  0.06428991       0.015
   0.00000000  0.00000000  0.09643487       0.003
   0.02739208 -0.01581483  0.09643487       0.015
   0.05478416 -0.03162965  0.09643487       0.015
   0.08217625 -0.04744448  0.09643487       0.015
   0.10956833 -0.06325931  0.09643487       0.015
   0.13696041 -0.07907414  0.09643487       0.007
   0.05478416  0.00000000  0.09643487       0.015
   0.08217625 -0.01581483  0.09643487       0.030
   0.10956833 -0.03162965  0.09643487       0.030
   0.13696041 -0.04744448  0.09643487       0.030
   0.10956833  0.00000000  0.09643487       0.015
   0.13696041 -0.01581483  0.09643487       0.030
   0.16435249 -0.03162965  0.09643487       0.015
   0.16435249  0.00000000  0.09643487       0.015
   0.00000000  0.00000000  0.12857982       0.001
   0.02739208 -0.01581483  0.12857982       0.007
   0.05478416 -0.03162965  0.12857982       0.007
   0.08217625 -0.04744448  0.12857982       0.007
   0.10956833 -0.06325931  0.12857982       0.007
   0.13696041 -0.07907414  0.12857982       0.004
   0.05478416  0.00000000  0.12857982       0.007
   0.08217625 -0.01581483  0.12857982       0.015
   0.10956833 -0.03162965  0.12857982       0.015
   0.13696041 -0.04744448  0.12857982       0.015
   0.10956833  0.00000000  0.12857982       0.007
   0.13696041 -0.01581483  0.12857982       0.015
   0.16435249 -0.03162965  0.12857982       0.007
   0.16435249  0.00000000  0.12857982       0.007
 
 k-points in reciprocal lattice and weights: Fully automatic kpoint scheme           
   0.00000000  0.00000000  0.00000000       0.001
   0.10000000  0.00000000  0.00000000       0.007
   0.20000000  0.00000000  0.00000000       0.007
   0.30000000  0.00000000  0.00000000       0.007
   0.40000000  0.00000000  0.00000000       0.007
   0.50000000  0.00000000  0.00000000       0.004
   0.10000000  0.10000000  0.00000000       0.007
   0.20000000  0.10000000  0.00000000       0.015
   0.30000000  0.10000000  0.00000000       0.015
   0.40000000  0.10000000  0.00000000       0.015
   0.20000000  0.20000000  0.00000000       0.007
   0.30000000  0.20000000  0.00000000       0.015
   0.40000000  0.20000000  0.00000000       0.007
   0.30000000  0.30000000  0.00000000       0.007
   0.00000000  0.00000000  0.12500000       0.003
   0.10000000  0.00000000  0.12500000       0.015
   0.20000000  0.00000000  0.12500000       0.015
   0.30000000  0.00000000  0.12500000       0.015
   0.40000000  0.00000000  0.12500000       0.015
   0.50000000  0.00000000  0.12500000       0.007
   0.10000000  0.10000000  0.12500000       0.015
   0.20000000  0.10000000  0.12500000       0.030
   0.30000000  0.10000000  0.12500000       0.030
   0.40000000  0.10000000  0.12500000       0.030
   0.20000000  0.20000000  0.12500000       0.015
   0.30000000  0.20000000  0.12500000       0.030
   0.40000000  0.20000000  0.12500000       0.015
   0.30000000  0.30000000  0.12500000       0.015
   0.00000000  0.00000000  0.25000000       0.003
   0.10000000  0.00000000  0.25000000       0.015
   0.20000000  0.00000000  0.25000000       0.015
   0.30000000  0.00000000  0.25000000       0.015
   0.40000000  0.00000000  0.25000000       0.015
   0.50000000  0.00000000  0.25000000       0.007
   0.10000000  0.10000000  0.25000000       0.015
   0.20000000  0.10000000  0.25000000       0.030
   0.30000000  0.10000000  0.25000000       0.030
   0.40000000  0.10000000  0.25000000       0.030
   0.20000000  0.20000000  0.25000000       0.015
   0.30000000  0.20000000  0.25000000       0.030
   0.40000000  0.20000000  0.25000000       0.015
   0.30000000  0.30000000  0.25000000       0.015
   0.00000000  0.00000000  0.37500000       0.003
   0.10000000  0.00000000  0.37500000       0.015
   0.20000000  0.00000000  0.37500000       0.015
   0.30000000  0.00000000  0.37500000       0.015
   0.40000000  0.00000000  0.37500000       0.015
   0.50000000  0.00000000  0.37500000       0.007
   0.10000000  0.10000000  0.37500000       0.015
   0.20000000  0.10000000  0.37500000       0.030
   0.30000000  0.10000000  0.37500000       0.030
   0.40000000  0.10000000  0.37500000       0.030
   0.20000000  0.20000000  0.37500000       0.015
   0.30000000  0.20000000  0.37500000       0.030
   0.40000000  0.20000000  0.37500000       0.015
   0.30000000  0.30000000  0.37500000       0.015
   0.00000000  0.00000000  0.50000000       0.001
   0.10000000  0.00000000  0.50000000       0.007
   0.20000000  0.00000000  0.50000000       0.007
   0.30000000  0.00000000  0.50000000       0.007
   0.40000000  0.00000000  0.50000000       0.007
   0.50000000  0.00000000  0.50000000       0.004
   0.10000000  0.10000000  0.50000000       0.007
   0.20000000  0.10000000  0.50000000       0.015
   0.30000000  0.10000000  0.50000000       0.015
   0.40000000  0.10000000  0.50000000       0.015
   0.20000000  0.20000000  0.50000000       0.007
   0.30000000  0.20000000  0.50000000       0.015
   0.40000000  0.20000000  0.50000000       0.007
   0.30000000  0.30000000  0.50000000       0.007
 
 position of ions in fractional coordinates (direct lattice) 
   0.00000000  0.00000000  0.50000000
   0.33333300  0.66666700  0.00000000
   0.66666700  0.33333300  0.00000000
   0.00000000  0.00000000  0.00000000
 
 position of ions in cartesian coordinates  (Angst):
   0.00000000  0.00000000  1.94431750
   1.82534500  1.05386544  0.00000000
   1.82534500 -1.05386544  0.00000000
   0.00000000  0.00000000  0.00000000
 


--------------------------------------------------------------------------------------------------------


 k-point  1 :   0.0000 0.0000 0.0000  plane waves:    1203
 k-point  2 :   0.1000 0.0000 0.0000  plane waves:    1191
 k-point  3 :   0.2000 0.0000 0.0000  plane waves:    1196
 k-point  4 :   0.3000 0.0000 0.0000  plane waves:    1202
 k-point  5 :   0.4000 0.0000 0.0000  plane waves:    1218
 k-point  6 :   0.5000 0.0000 0.0000  plane waves:    1218
 k-point  7 :   0.1000 0.1000 0.0000  plane waves:    1191
 k-point  8 :   0.2000 0.1000 0.0000  plane waves:    1205
 k-point  9 :   0.3000 0.1000 0.0000  plane waves:    1205
 k-point 10 :   0.4000 0.1000 0.0000  plane waves:    1222
 k-point 11 :   0.2000 0.2000 0.0000  plane waves:    1201
 k-point 12 :   0.3000 0.2000 0.0000  plane waves:    1211
 k-point 13 :   0.4000 0.2000 0.0000  plane waves:    1220
 k-point 14 :   0.3000 0.3000 0.0000  plane waves:    1217
 k-point 15 :   0.0000 0.0000 0.1250  plane waves:    1203
 k-point 16 :   0.1000 0.0000 0.1250  plane waves:    1205
 k-point 17 :   0.2000 0.0000 0.1250  plane waves:    1200
 k-point 18 :   0.3000 0.0000 0.1250  plane waves:    1208
 k-point 19 :   0.4000 0.0000 0.1250  plane waves:    1213
 k-point 20 :   0.5000 0.0000 0.1250  plane waves:    1222
 k-point 21 :   0.1000 0.1000 0.1250  plane waves:    1192
 k-point 22 :   0.2000 0.1000 0.1250  plane waves:    1210
 k-point 23 :   0.3000 0.1000 0.1250  plane waves:    1212
 k-point 24 :   0.4000 0.1000 0.1250  plane waves:    1211
 k-point 25 :   0.2000 0.2000 0.1250  plane waves:    1201
 k-point 26 :   0.3000 0.2000 0.1250  plane waves:    1206
 k-point 27 :   0.4000 0.2000 0.1250  plane waves:    1216
 k-point 28 :   0.3000 0.3000 0.1250  plane waves:    1210
 k-point 29 :   0.0000 0.0000 0.2500  plane waves:    1214
 k-point 30 :   0.1000 0.0000 0.2500  plane waves:    1207
 k-point 31 :   0.2000 0.0000 0.2500  plane waves:    1204
 k-point 32 :   0.3000 0.0000 0.2500  plane waves:    1214
 k-point 33 :   0.4000 0.0000 0.2500  plane waves:    1214
 k-point 34 :   0.5000 0.0000 0.2500  plane waves:    1204
 k-point 35 :   0.1000 0.1000 0.2500  plane waves:    1211
 k-point 36 :   0.2000 0.1000 0.2500  plane waves:    1208
 k-point 37 :   0.3000 0.1000 0.2500  plane waves:    1205
 k-point 38 :   0.4000 0.1000 0.2500  plane waves:    1209
 k-point 39 :   0.2000 0.2000 0.2500  plane waves:    1208
 k-point 40 :   0.3000 0.2000 0.2500  plane waves:    1203
 k-point 41 :   0.4000 0.2000 0.2500  plane waves:    1205
 k-point 42 :   0.3000 0.3000 0.2500  plane waves:    1203
 k-point 43 :   0.0000 0.0000 0.3750  plane waves:    1208
 k-point 44 :   0.1000 0.0000 0.3750  plane waves:    1216
 k-point 45 :   0.2000 0.0000 0.3750  plane waves:    1205
 k-point 46 :   0.3000 0.0000 0.3750  plane waves:    1212
 k-point 47 :   0.4000 0.0000 0.3750  plane waves:    1209
 k-point 48 :   0.5000 0.0000 0.3750  plane waves:    1210
 k-point 49 :   0.1000 0.1000 0.3750  plane waves:    1214
 k-point 50 :   0.2000 0.1000 0.3750  plane waves:    1207
 k-point 51 :   0.3000 0.1000 0.3750  plane waves:    1207
 k-point 52 :   0.4000 0.1000 0.3750  plane waves:    1211
 k-point 53 :   0.2000 0.2000 0.3750  plane waves:    1204
 k-point 54 :   0.3000 0.2000 0.3750  plane waves:    1210
 k-point 55 :   0.4000 0.2000 0.3750  plane waves:    1210
 k-point 56 :   0.3000 0.3000 0.3750  plane waves:    1207
 k-point 57 :   0.0000 0.0000 0.5000  plane waves:    1202
 k-point 58 :   0.1000 0.0000 0.5000  plane waves:    1210
 k-point 59 :   0.2000 0.0000 0.5000  plane waves:    1220
 k-point 60 :   0.3000 0.0000 0.5000  plane waves:    1202
 k-point 61 :   0.4000 0.0000 0.5000  plane waves:    1208
 k-point 62 :   0.5000 0.0000 0.5000  plane waves:    1204
 k-point 63 :   0.1000 0.1000 0.5000  plane waves:    1216
 k-point 64 :   0.2000 0.1000 0.5000  plane waves:    1212
 k-point 65 :   0.3000 0.1000 0.5000  plane waves:    1210
 k-point 66 :   0.4000 0.1000 0.5000  plane waves:    1210
 k-point 67 :   0.2000 0.2000 0.5000  plane waves:    1206
 k-point 68 :   0.3000 0.2000 0.5000  plane waves:    1208
 k-point 69 :   0.4000 0.2000 0.5000  plane waves:    1206
 k-point 70 :   0.3000 0.3000 0.5000  plane waves:    1220

 maximum and minimum number of plane-waves per node :       214      179

 maximum number of plane-waves:      1222
 maximum index in each direction: 
   IXMAX=    6   IYMAX=    6   IZMAX=    7
   IXMIN=   -7   IYMIN=   -7   IZMIN=   -7


 real space projection operators:
  total allocation   :        682.98 KBytes
  max/ min on nodes  :        126.42         92.44


 parallel 3D FFT for wavefunctions:
    minimum data exchange during FFTs selected (reduces bandwidth)
 parallel 3D FFT for charge:
    minimum data exchange during FFTs selected (reduces bandwidth)


 total amount of memory used by VASP MPI-rank0    33679. kBytes
=======================================================================

   base      :      30000. kBytes
   nonlr-proj:        568. kBytes
   fftplans  :        459. kBytes
   grid      :       1168. kBytes
   one-center:          6. kBytes
   wavefun   :       1478. kBytes
 
     INWAV:  cpu time    0.0000: real time    0.0001
 Broyden mixing: mesh for mixing (old mesh)
   NGX = 13   NGY = 13   NGZ = 15
  (NGX  = 56   NGY  = 56   NGZ  = 60)
  gives a total of   2535 points

 initial charge density was supplied:
 charge density of overlapping atoms calculated
 number of electron      14.0000000 magnetization       0.0000000
 keeping initial charge density in first step


--------------------------------------------------------------------------------------------------------


 Maximum index for non-local projection operator         1101
 Maximum index for augmentation-charges          594 (set IRDMAX)


--------------------------------------------------------------------------------------------------------


 First call to EWALD:  gamma=   0.499
 Maximum number of real-space cells 3x 3x 3
 Maximum number of reciprocal cells 3x 3x 3

    FEWALD:  cpu time    0.0024: real time    0.0046


--------------------------------------- Iteration      1(   1)  ---------------------------------------


    POTLOK:  cpu time    0.0275: real time    0.0726
    SETDIJ:  cpu time    0.2315: real time    0.2380
     EDDAV:  cpu time    0.6343: real time    0.7131
 BZINTS: Fermi energy:  8.280356; 14.000000 electrons
         Band energy:-225.203735;  BLOECHL correction: -0.206328
       DOS:  cpu time    0.0400: real time    0.0426
    --------------------------------------------
      LOOP:  cpu time    0.9333: real time    1.0663

 eigenvalue-minimisations  :  3360
 total energy-change (2. order) : 0.5923338E+02  (-0.6520103E+03)
 number of electron      14.0000000 magnetization       0.0000000
 augmentation part       14.0000000 magnetization       0.0000000

 Free energy of the ion-electron system (eV)
  ---------------------------------------------------
  alpha Z        PSCENC =        13.90221234
  Ewald energy   TEWEN  =      -415.65189409
  -Hartree energ DENC   =      -195.81592886
  -exchange      EXHF   =         0.00000000
  -V(xc)+E(xc)   XCENC  =        56.55542179
  PAW double counting   =       444.21760909     -491.62491534
  entropy T*S    EENTRO =         0.00000000
  eigenvalues    EBANDS =      -225.20373549
  atomic energy  EATOM  =       872.85461122
  Solvation  Ediel_sol  =         0.00000000
  ---------------------------------------------------
  free energy    TOTEN  =        59.23338067 eV

  energy without entropy =       59.23338067  energy(sigma->0) =       59.23338067


--------------------------------------------------------------------------------------------------------




--------------------------------------- Iteration      1(   2)  ---------------------------------------


     EDDAV:  cpu time    0.7085: real time    0.7105
 BZINTS: Fermi energy: -0.688493; 14.000000 electrons
         Band energy:-294.743063;  BLOECHL correction:  0.000000
       DOS:  cpu time    0.0081: real time    0.0082
    --------------------------------------------
      LOOP:  cpu time    0.7166: real time    0.7186

 eigenvalue-minimisations  :  4596
 total energy-change (2. order) :-0.6953933E+02  (-0.6525528E+02)
 number of electron      14.0000000 magnetization       0.0000000
 augmentation part       14.0000000 magnetization       0.0000000

 Free energy of the ion-electron system (eV)
  ---------------------------------------------------
  alpha Z        PSCENC =        13.90221234
  Ewald energy   TEWEN  =      -415.65189409
  -Hartree energ DENC   =      -195.81592886
  -exchange      EXHF   =         0.00000000
  -V(xc)+E(xc)   XCENC  =        56.55542179
  PAW double counting   =       444.21760909     -491.62491534
  entropy T*S    EENTRO =         0.00000000
  eigenvalues    EBANDS =      -294.74306301
  atomic energy  EATOM  =       872.85461122
  Solvation  Ediel_sol  =         0.00000000
  ---------------------------------------------------
  free energy    TOTEN  =       -10.30594685 eV

  energy without entropy =      -10.30594685  energy(sigma->0) =      -10.30594685


--------------------------------------------------------------------------------------------------------




--------------------------------------- Iteration      1(   3)  ---------------------------------------


     EDDAV:  cpu time    0.8214: real time    0.8219
 BZINTS: Fermi energy: -2.314166; 14.000000 electrons
         Band energy:-303.565007;  BLOECHL correction:  0.000000
       DOS:  cpu time    0.0066: real time    0.0066
    --------------------------------------------
      LOOP:  cpu time    0.8280: real time    0.8285

 eigenvalue-minimisations  :  5460
 total energy-change (2. order) :-0.8821944E+01  (-0.8766139E+01)
 number of electron      14.0000000 magnetization       0.0000000
 augmentation part       14.0000000 magnetization       0.0000000

 Free energy of the ion-electron system (eV)
  ---------------------------------------------------
  alpha Z        PSCENC =        13.90221234
  Ewald energy   TEWEN  =      -415.65189409
  -Hartree energ DENC   =      -195.81592886
  -exchange      EXHF   =         0.00000000
  -V(xc)+E(xc)   XCENC  =        56.55542179
  PAW double counting   =       444.21760909     -491.62491534
  entropy T*S    EENTRO =         0.00000000
  eigenvalues    EBANDS =      -303.56500724
  atomic energy  EATOM  =       872.85461122
  Solvation  Ediel_sol  =         0.00000000
  ---------------------------------------------------
  free energy    TOTEN  =       -19.12789108 eV

  energy without entropy =      -19.12789108  energy(sigma->0) =      -19.12789108


--------------------------------------------------------------------------------------------------------




--------------------------------------- Iteration      1(   4)  ---------------------------------------


     EDDAV:  cpu time    0.7781: real time    0.7794
 BZINTS: Fermi energy: -2.344953; 14.000000 electrons
         Band energy:-304.206812;  BLOECHL correction:  0.000000
       DOS:  cpu time    0.0064: real time    0.0064
    --------------------------------------------
      LOOP:  cpu time    0.7845: real time    0.7859

 eigenvalue-minimisations  :  5088
 total energy-change (2. order) :-0.6418047E+00  (-0.6412374E+00)
 number of electron      14.0000000 magnetization       0.0000000
 augmentation part       14.0000000 magnetization       0.0000000

 Free energy of the ion-electron system (eV)
  ---------------------------------------------------
  alpha Z        PSCENC =        13.90221234
  Ewald energy   TEWEN  =      -415.65189409
  -Hartree energ DENC   =      -195.81592886
  -exchange      EXHF   =         0.00000000
  -V(xc)+E(xc)   XCENC  =        56.55542179
  PAW double counting   =       444.21760909     -491.62491534
  entropy T*S    EENTRO =         0.00000000
  eigenvalues    EBANDS =      -304.20681194
  atomic energy  EATOM  =       872.85461122
  Solvation  Ediel_sol  =         0.00000000
  ---------------------------------------------------
  free energy    TOTEN  =       -19.76969578 eV

  energy without entropy =      -19.76969578  energy(sigma->0) =      -19.76969578


--------------------------------------------------------------------------------------------------------




--------------------------------------- Iteration      1(   5)  ---------------------------------------


     EDDAV:  cpu time    0.7246: real time    0.7254
 BZINTS: Fermi energy: -2.345824; 14.000000 electrons
         Band energy:-304.215550;  BLOECHL correction:  0.000000
       DOS:  cpu time    0.0062: real time    0.0062
    CHARGE:  cpu time    0.0299: real time    0.0413
    MIXING:  cpu time    0.0077: real time    0.0126
    --------------------------------------------
      LOOP:  cpu time    0.7684: real time    0.7855

 eigenvalue-minimisations  :  4764
 total energy-change (2. order) :-0.8737651E-02  (-0.8737268E-02)
 number of electron      13.9999990 magnetization      -0.0000000
 augmentation part        3.2876492 magnetization       0.0003823

 Broyden mixing:
  rms(total) = 0.98063E+00    rms(broyden)= 0.98022E+00
  rms(prec ) = 0.31341E+01
  weight for this iteration     100.00

 Free energy of the ion-electron system (eV)
  ---------------------------------------------------
  alpha Z        PSCENC =        13.90221234
  Ewald energy   TEWEN  =      -415.65189409
  -Hartree energ DENC   =      -195.81592886
  -exchange      EXHF   =         0.00000000
  -V(xc)+E(xc)   XCENC  =        56.55542179
  PAW double counting   =       444.21760909     -491.62491534
  entropy T*S    EENTRO =         0.00000000
  eigenvalues    EBANDS =      -304.21554959
  atomic energy  EATOM  =       872.85461122
  Solvation  Ediel_sol  =         0.00000000
  ---------------------------------------------------
  free energy    TOTEN  =       -19.77843343 eV

  energy without entropy =      -19.77843343  energy(sigma->0) =      -19.77843343


--------------------------------------------------------------------------------------------------------




--------------------------------------- Iteration      1(   6)  ---------------------------------------


    POTLOK:  cpu time    0.0120: real time    0.0125
    SETDIJ:  cpu time    0.2526: real time    0.2528
    EDDIAG:  cpu time    0.1263: real time    0.1316
  RMM-DIIS:  cpu time    0.2845: real time    0.2880
    ORTHCH:  cpu time    0.0133: real time    0.0133
 BZINTS: Fermi energy:  1.607772; 14.000000 electrons
         Band energy:-278.175332;  BLOECHL correction:  0.000000
       DOS:  cpu time    0.0065: real time    0.0065
    CHARGE:  cpu time    0.0209: real time    0.0209
    MIXING:  cpu time    0.0017: real time    0.0049
    --------------------------------------------
      LOOP:  cpu time    0.7179: real time    0.7305

 eigenvalue-minimisations  :  3395
 total energy-change (2. order) : 0.3651258E+01  (-0.1092478E+01)
 number of electron      13.9999992 magnetization       0.0000000
 augmentation part        2.8705388 magnetization       0.0004654

 Broyden mixing:
  rms(total) = 0.48770E+00    rms(broyden)= 0.48693E+00
  rms(prec ) = 0.98867E+00
  weight for this iteration     100.00

 eigenvalues of (default mixing * dielectric matrix)
  average eigenvalue GAMMA=   0.6877
  0.6877

 Free energy of the ion-electron system (eV)
  ---------------------------------------------------
  alpha Z        PSCENC =        13.90221234
  Ewald energy   TEWEN  =      -415.65189409
  -Hartree energ DENC   =      -219.16572608
  -exchange      EXHF   =         0.00000000
  -V(xc)+E(xc)   XCENC  =        58.01473271
  PAW double counting   =       540.79395345     -588.69973378
  entropy T*S    EENTRO =         0.00000000
  eigenvalues    EBANDS =      -278.17533155
  atomic energy  EATOM  =       872.85461122
  Solvation  Ediel_sol  =         0.00000000
  ---------------------------------------------------
  free energy    TOTEN  =       -16.12717578 eV

  energy without entropy =      -16.12717578  energy(sigma->0) =      -16.12717578


--------------------------------------------------------------------------------------------------------




--------------------------------------- Iteration      1(   7)  ---------------------------------------


    POTLOK:  cpu time    0.0123: real time    0.0131
    SETDIJ:  cpu time    0.2523: real time    0.2524
    EDDIAG:  cpu time    0.1242: real time    0.1243
  RMM-DIIS:  cpu time    0.2664: real time    0.2665
    ORTHCH:  cpu time    0.0123: real time    0.0123
 BZINTS: Fermi energy:  1.134329; 14.000000 electrons
         Band energy:-281.070647;  BLOECHL correction:  0.000000
       DOS:  cpu time    0.0063: real time    0.0063
    CHARGE:  cpu time    0.0202: real time    0.0202
    MIXING:  cpu time    0.0004: real time    0.0004
    --------------------------------------------
      LOOP:  cpu time    0.6943: real time    0.6954

 eigenvalue-minimisations  :  3907
 total energy-change (2. order) : 0.4111583E+00  (-0.4173719E-01)
 number of electron      13.9999991 magnetization       0.0000000
 augmentation part        2.9240462 magnetization       0.0002048

 Broyden mixing:
  rms(total) = 0.21024E+00    rms(broyden)= 0.21023E+00
  rms(prec ) = 0.50096E+00
  weight for this iteration     100.00

 eigenvalues of (default mixing * dielectric matrix)
  average eigenvalue GAMMA=   1.7301
  0.8189  2.6414

 Free energy of the ion-electron system (eV)
  ---------------------------------------------------
  alpha Z        PSCENC =        13.90221234
  Ewald energy   TEWEN  =      -415.65189409
  -Hartree energ DENC   =      -215.71655705
  -exchange      EXHF   =         0.00000000
  -V(xc)+E(xc)   XCENC  =        57.70083407
  PAW double counting   =       570.30239534     -618.03697226
  entropy T*S    EENTRO =         0.00000000
  eigenvalues    EBANDS =      -281.07064700
  atomic energy  EATOM  =       872.85461122
  Solvation  Ediel_sol  =         0.00000000
  ---------------------------------------------------
  free energy    TOTEN  =       -15.71601744 eV

  energy without entropy =      -15.71601744  energy(sigma->0) =      -15.71601744


--------------------------------------------------------------------------------------------------------




--------------------------------------- Iteration      1(   8)  ---------------------------------------


    POTLOK:  cpu time    0.0120: real time    0.0122
    SETDIJ:  cpu time    0.2524: real time    0.2528
    EDDIAG:  cpu time    0.1234: real time    0.1235
  RMM-DIIS:  cpu time    0.2510: real time    0.2511
    ORTHCH:  cpu time    0.0123: real time    0.0123
 BZINTS: Fermi energy:  1.414452; 14.000000 electrons
         Band energy:-276.912204;  BLOECHL correction:  0.000000
       DOS:  cpu time    0.0064: real time    0.0064
    CHARGE:  cpu time    0.0201: real time    0.0201
    MIXING:  cpu time    0.0004: real time    0.0004
    --------------------------------------------
      LOOP:  cpu time    0.6780: real time    0.6788

 eigenvalue-minimisations  :  3626
 total energy-change (2. order) : 0.8148538E-01  (-0.3622952E-01)
 number of electron      13.9999992 magnetization      -0.0000000
 augmentation part        2.9082780 magnetization       0.0001975

 Broyden mixing:
  rms(total) = 0.10925E+00    rms(broyden)= 0.10922E+00
  rms(prec ) = 0.17019E+00
  weight for this iteration     100.00

 eigenvalues of (default mixing * dielectric matrix)
  average eigenvalue GAMMA=   1.4814
  1.8175  1.8175  0.8093

 Free energy of the ion-electron system (eV)
  ---------------------------------------------------
  alpha Z        PSCENC =        13.90221234
  Ewald energy   TEWEN  =      -415.65189409
  -Hartree energ DENC   =      -220.13129481
  -exchange      EXHF   =         0.00000000
  -V(xc)+E(xc)   XCENC  =        57.80864608
  PAW double counting   =       684.01019383     -731.51480218
  entropy T*S    EENTRO =         0.00000000
  eigenvalues    EBANDS =      -276.91220445
  atomic energy  EATOM  =       872.85461122
  Solvation  Ediel_sol  =         0.00000000
  ---------------------------------------------------
  free energy    TOTEN  =       -15.63453206 eV

  energy without entropy =      -15.63453206  energy(sigma->0) =      -15.63453206


--------------------------------------------------------------------------------------------------------




--------------------------------------- Iteration      1(   9)  ---------------------------------------


    POTLOK:  cpu time    0.0116: real time    0.0117
    SETDIJ:  cpu time    0.2522: real time    0.2524
    EDDIAG:  cpu time    0.1232: real time    0.1233
  RMM-DIIS:  cpu time    0.2800: real time    0.2802
    ORTHCH:  cpu time    0.0122: real time    0.0122
 BZINTS: Fermi energy:  1.375450; 14.000000 electrons
         Band energy:-277.998811;  BLOECHL correction:  0.000000
       DOS:  cpu time    0.0064: real time    0.0064
    CHARGE:  cpu time    0.0200: real time    0.0201
    MIXING:  cpu time    0.0004: real time    0.0004
    --------------------------------------------
      LOOP:  cpu time    0.7062: real time    0.7066

 eigenvalue-minimisations  :  3771
 total energy-change (2. order) : 0.1181349E-01  (-0.5576197E-02)
 number of electron      13.9999992 magnetization      -0.0000000
 augmentation part        2.9019806 magnetization       0.0001096

 Broyden mixing:
  rms(total) = 0.28485E-01    rms(broyden)= 0.28427E-01
  rms(prec ) = 0.68318E-01
  weight for this iteration     100.00

 eigenvalues of (default mixing * dielectric matrix)
  average eigenvalue GAMMA=   1.6763
  2.5614  2.5614  0.7913  0.7913

 Free energy of the ion-electron system (eV)
  ---------------------------------------------------
  alpha Z        PSCENC =        13.90221234
  Ewald energy   TEWEN  =      -415.65189409
  -Hartree energ DENC   =      -218.95219621
  -exchange      EXHF   =         0.00000000
  -V(xc)+E(xc)   XCENC  =        57.78074014
  PAW double counting   =       631.81769187     -679.37507240
  entropy T*S    EENTRO =         0.00000000
  eigenvalues    EBANDS =      -277.99881144
  atomic energy  EATOM  =       872.85461122
  Solvation  Ediel_sol  =         0.00000000
  ---------------------------------------------------
  free energy    TOTEN  =       -15.62271857 eV

  energy without entropy =      -15.62271857  energy(sigma->0) =      -15.62271857


--------------------------------------------------------------------------------------------------------




--------------------------------------- Iteration      1(  10)  ---------------------------------------


    POTLOK:  cpu time    0.0117: real time    0.0117
    SETDIJ:  cpu time    0.2526: real time    0.2528
    EDDIAG:  cpu time    0.1231: real time    0.1232
  RMM-DIIS:  cpu time    0.2939: real time    0.2941
    ORTHCH:  cpu time    0.0122: real time    0.0123
 BZINTS: Fermi energy:  1.388953; 14.000000 electrons
         Band energy:-277.653727;  BLOECHL correction:  0.000000
       DOS:  cpu time    0.0064: real time    0.0064
    CHARGE:  cpu time    0.0201: real time    0.0201
    MIXING:  cpu time    0.0004: real time    0.0004
    --------------------------------------------
      LOOP:  cpu time    0.7205: real time    0.7209

 eigenvalue-minimisations  :  4026
 total energy-change (2. order) :-0.1978260E-02  (-0.1733394E-02)
 number of electron      13.9999992 magnetization      -0.0000000
 augmentation part        2.8947060 magnetization       0.0000196

 Broyden mixing:
  rms(total) = 0.23065E-01    rms(broyden)= 0.23009E-01
  rms(prec ) = 0.46669E-01
  weight for this iteration     100.00

 eigenvalues of (default mixing * dielectric matrix)
  average eigenvalue GAMMA=   1.5699
  2.4925  2.4925  0.8102  1.0273  1.0273

 Free energy of the ion-electron system (eV)
  ---------------------------------------------------
  alpha Z        PSCENC =        13.90221234
  Ewald energy   TEWEN  =      -415.65189409
  -Hartree energ DENC   =      -219.39041386
  -exchange      EXHF   =         0.00000000
  -V(xc)+E(xc)   XCENC  =        57.80569057
  PAW double counting   =       624.38697360     -671.87814948
  entropy T*S    EENTRO =         0.00000000
  eigenvalues    EBANDS =      -277.65372714
  atomic energy  EATOM  =       872.85461122
  Solvation  Ediel_sol  =         0.00000000
  ---------------------------------------------------
  free energy    TOTEN  =       -15.62469683 eV

  energy without entropy =      -15.62469683  energy(sigma->0) =      -15.62469683


--------------------------------------------------------------------------------------------------------




--------------------------------------- Iteration      1(  11)  ---------------------------------------


    POTLOK:  cpu time    0.0117: real time    0.0117
    SETDIJ:  cpu time    0.2504: real time    0.2526
    EDDIAG:  cpu time    0.1263: real time    0.1270
  RMM-DIIS:  cpu time    0.2797: real time    0.2799
    ORTHCH:  cpu time    0.0122: real time    0.0122
 BZINTS: Fermi energy:  1.394966; 14.000000 electrons
         Band energy:-277.435723;  BLOECHL correction:  0.000000
       DOS:  cpu time    0.0064: real time    0.0064
    CHARGE:  cpu time    0.0203: real time    0.0204
    MIXING:  cpu time    0.0004: real time    0.0004
    --------------------------------------------
      LOOP:  cpu time    0.7076: real time    0.7106

 eigenvalue-minimisations  :  4005
 total energy-change (2. order) : 0.1011831E-03  (-0.4158251E-03)
 number of electron      13.9999992 magnetization       0.0000000
 augmentation part        2.8935698 magnetization       0.0000246

 Broyden mixing:
  rms(total) = 0.65530E-02    rms(broyden)= 0.65112E-02
  rms(prec ) = 0.11920E-01
  weight for this iteration     100.00

 eigenvalues of (default mixing * dielectric matrix)
  average eigenvalue GAMMA=   1.6104
  2.3896  2.3896  2.3512  1.0502  0.8184  0.6634

 Free energy of the ion-electron system (eV)
  ---------------------------------------------------
  alpha Z        PSCENC =        13.90221234
  Ewald energy   TEWEN  =      -415.65189409
  -Hartree energ DENC   =      -219.66370046
  -exchange      EXHF   =         0.00000000
  -V(xc)+E(xc)   XCENC  =        57.81656222
  PAW double counting   =       630.66916453     -678.11582852
  entropy T*S    EENTRO =         0.00000000
  eigenvalues    EBANDS =      -277.43572289
  atomic energy  EATOM  =       872.85461122
  Solvation  Ediel_sol  =         0.00000000
  ---------------------------------------------------
  free energy    TOTEN  =       -15.62459565 eV

  energy without entropy =      -15.62459565  energy(sigma->0) =      -15.62459565


--------------------------------------------------------------------------------------------------------




--------------------------------------- Iteration      1(  12)  ---------------------------------------


    POTLOK:  cpu time    0.0121: real time    0.0130
    SETDIJ:  cpu time    0.2526: real time    0.2528
    EDDIAG:  cpu time    0.1233: real time    0.1234
  RMM-DIIS:  cpu time    0.2741: real time    0.2742
    ORTHCH:  cpu time    0.0122: real time    0.0123
 BZINTS: Fermi energy:  1.398903; 14.000000 electrons
         Band energy:-277.324953;  BLOECHL correction:  0.000000
       DOS:  cpu time    0.0063: real time    0.0064
    CHARGE:  cpu time    0.0202: real time    0.0201
    MIXING:  cpu time    0.0004: real time    0.0004
    --------------------------------------------
      LOOP:  cpu time    0.7013: real time    0.7025

 eigenvalue-minimisations  :  3858
 total energy-change (2. order) :-0.1611981E-03  (-0.1445812E-03)
 number of electron      13.9999992 magnetization       0.0000000
 augmentation part        2.8922787 magnetization      -0.0000090

 Broyden mixing:
  rms(total) = 0.24151E-02    rms(broyden)= 0.23833E-02
  rms(prec ) = 0.36221E-02
  weight for this iteration     100.00

 eigenvalues of (default mixing * dielectric matrix)
  average eigenvalue GAMMA=   1.6947
  3.6090  2.4508  2.4508  0.9543  0.9543  0.8001  0.6432

 Free energy of the ion-electron system (eV)
  ---------------------------------------------------
  alpha Z        PSCENC =        13.90221234
  Ewald energy   TEWEN  =      -415.65189409
  -Hartree energ DENC   =      -219.82374583
  -exchange      EXHF   =         0.00000000
  -V(xc)+E(xc)   XCENC  =        57.82793262
  PAW double counting   =       632.26055460     -679.66947438
  entropy T*S    EENTRO =         0.00000000
  eigenvalues    EBANDS =      -277.32495333
  atomic energy  EATOM  =       872.85461122
  Solvation  Ediel_sol  =         0.00000000
  ---------------------------------------------------
  free energy    TOTEN  =       -15.62475684 eV

  energy without entropy =      -15.62475684  energy(sigma->0) =      -15.62475684


--------------------------------------------------------------------------------------------------------




--------------------------------------- Iteration      1(  13)  ---------------------------------------


    POTLOK:  cpu time    0.0117: real time    0.0117
    SETDIJ:  cpu time    0.2521: real time    0.2523
    EDDIAG:  cpu time    0.1236: real time    0.1237
  RMM-DIIS:  cpu time    0.2627: real time    0.2629
    ORTHCH:  cpu time    0.0122: real time    0.0122
 BZINTS: Fermi energy:  1.400347; 14.000000 electrons
         Band energy:-277.289406;  BLOECHL correction:  0.000000
       DOS:  cpu time    0.0063: real time    0.0063
    CHARGE:  cpu time    0.0201: real time    0.0201
    MIXING:  cpu time    0.0005: real time    0.0005
    --------------------------------------------
      LOOP:  cpu time    0.6893: real time    0.6897

 eigenvalue-minimisations  :  3534
 total energy-change (2. order) :-0.4588276E-04  (-0.4393064E-04)
 number of electron      13.9999992 magnetization      -0.0000000
 augmentation part        2.8914009 magnetization      -0.0000020

 Broyden mixing:
  rms(total) = 0.77623E-03    rms(broyden)= 0.74414E-03
  rms(prec ) = 0.13338E-02
  weight for this iteration     100.00

 eigenvalues of (default mixing * dielectric matrix)
  average eigenvalue GAMMA=   1.5836
  3.5404  2.4438  2.4438  0.9317  0.9317  0.9295  0.8131  0.6348

 Free energy of the ion-electron system (eV)
  ---------------------------------------------------
  alpha Z        PSCENC =        13.90221234
  Ewald energy   TEWEN  =      -415.65189409
  -Hartree energ DENC   =      -219.87878405
  -exchange      EXHF   =         0.00000000
  -V(xc)+E(xc)   XCENC  =        57.83234098
  PAW double counting   =       632.31224038     -679.70612324
  entropy T*S    EENTRO =         0.00000000
  eigenvalues    EBANDS =      -277.28940627
  atomic energy  EATOM  =       872.85461122
  Solvation  Ediel_sol  =         0.00000000
  ---------------------------------------------------
  free energy    TOTEN  =       -15.62480273 eV

  energy without entropy =      -15.62480273  energy(sigma->0) =      -15.62480273


--------------------------------------------------------------------------------------------------------




--------------------------------------- Iteration      1(  14)  ---------------------------------------


    POTLOK:  cpu time    0.0117: real time    0.0118
    SETDIJ:  cpu time    0.2526: real time    0.2528
    EDDIAG:  cpu time    0.1231: real time    0.1232
  RMM-DIIS:  cpu time    0.2556: real time    0.2558
    ORTHCH:  cpu time    0.0124: real time    0.0124
 BZINTS: Fermi energy:  1.399649; 14.000000 electrons
         Band energy:-277.306627;  BLOECHL correction:  0.000000
       DOS:  cpu time    0.0064: real time    0.0064
    CHARGE:  cpu time    0.0201: real time    0.0201
    MIXING:  cpu time    0.0005: real time    0.0005
    --------------------------------------------
      LOOP:  cpu time    0.6825: real time    0.6829

 eigenvalue-minimisations  :  3012
 total energy-change (2. order) :-0.8819452E-05  (-0.1188293E-04)
 number of electron      13.9999992 magnetization      -0.0000000
 augmentation part        2.8912069 magnetization       0.0000032

 Broyden mixing:
  rms(total) = 0.59167E-03    rms(broyden)= 0.58450E-03
  rms(prec ) = 0.90943E-03
  weight for this iteration     100.00

 eigenvalues of (default mixing * dielectric matrix)
  average eigenvalue GAMMA=   1.6089
  3.6055  2.5398  2.5398  1.4666  1.1767  1.0101  0.8120  0.7013  0.6282

 Free energy of the ion-electron system (eV)
  ---------------------------------------------------
  alpha Z        PSCENC =        13.90221234
  Ewald energy   TEWEN  =      -415.65189409
  -Hartree energ DENC   =      -219.85930262
  -exchange      EXHF   =         0.00000000
  -V(xc)+E(xc)   XCENC  =        57.83114837
  PAW double counting   =       632.01580236     -679.41076176
  entropy T*S    EENTRO =         0.00000000
  eigenvalues    EBANDS =      -277.30662737
  atomic energy  EATOM  =       872.85461122
  Solvation  Ediel_sol  =         0.00000000
  ---------------------------------------------------
  free energy    TOTEN  =       -15.62481155 eV

  energy without entropy =      -15.62481155  energy(sigma->0) =      -15.62481155


--------------------------------------------------------------------------------------------------------




--------------------------------------- Iteration      1(  15)  ---------------------------------------


    POTLOK:  cpu time    0.0116: real time    0.0117
    SETDIJ:  cpu time    0.2522: real time    0.2523
    EDDIAG:  cpu time    0.1235: real time    0.1236
  RMM-DIIS:  cpu time    0.2244: real time    0.2245
    ORTHCH:  cpu time    0.0122: real time    0.0122
 BZINTS: Fermi energy:  1.399879; 14.000000 electrons
         Band energy:-277.305605;  BLOECHL correction:  0.000000
       DOS:  cpu time    0.0063: real time    0.0063
    --------------------------------------------
      LOOP:  cpu time    0.6303: real time    0.6306

 eigenvalue-minimisations  :  2613
 total energy-change (2. order) :-0.3213010E-05  (-0.3427119E-05)
 number of electron      13.9999992 magnetization      -0.0000000
 augmentation part        2.8912069 magnetization       0.0000032

 Free energy of the ion-electron system (eV)
  ---------------------------------------------------
  alpha Z        PSCENC =        13.90221234
  Ewald energy   TEWEN  =      -415.65189409
  -Hartree energ DENC   =      -219.86751525
  -exchange      EXHF   =         0.00000000
  -V(xc)+E(xc)   XCENC  =        57.83202636
  PAW double counting   =       632.06168422     -679.45033419
  entropy T*S    EENTRO =         0.00000000
  eigenvalues    EBANDS =      -277.30560537
  atomic energy  EATOM  =       872.85461122
  Solvation  Ediel_sol  =         0.00000000
  ---------------------------------------------------
  free energy    TOTEN  =       -15.62481476 eV

  energy without entropy =      -15.62481476  energy(sigma->0) =      -15.62481476


--------------------------------------------------------------------------------------------------------




 average (electrostatic) potential at core
  the test charge radii are     0.7079  0.7089
  (the norm of the test charge is              1.0000)
       1 -61.8860       2 -62.1750       3 -62.1750       4 -64.9060
 
 
 
 E-fermi :   1.3999     XC(G=0):  -8.4907     alpha+bet :-11.9339


 spin component 1

 k-point     1 :       0.0000    0.0000    0.0000
  band No.  band energies     occupation 
      1     -43.2513      1.00000
      2     -42.9182      1.00000
      3     -42.7913      1.00000
      4     -10.1484      1.00000
      5      -0.2132      1.00000
      6       1.1163      1.00000
      7       1.1163      1.00000
      8       2.3483      0.00000
      9       8.5784      0.00000
     10       8.5785      0.00000
     11       9.5107      0.00000
     12      13.4889      0.00000

 k-point     2 :       0.1000    0.0000    0.0000
  band No.  band energies     occupation 
      1     -43.2438      1.00000
      2     -42.9252      1.00000
      3     -42.7912      1.00000
      4     -10.1380      1.00000
      5      -0.1478      1.00000
      6       0.7251      1.00000
      7       0.9981      1.00000
      8       2.7216      0.00000
      9       8.6034      0.00000
     10       8.8592      0.00000
     11       9.3950      0.00000
     12      13.3135      0.00000

 k-point     3 :       0.2000    0.0000    0.0000
  band No.  band energies     occupation 
      1     -43.2225      1.00000
      2     -42.9456      1.00000
      3     -42.7913      1.00000
      4     -10.1112      1.00000
      5       0.0319      1.00000
      6       0.0792      1.00000
      7       0.7173      1.00000
      8       3.3783      0.00000
      9       8.4325      0.00000
     10       9.0946      0.00000
     11       9.5484      0.00000
     12      13.0356      0.00000

 k-point     4 :       0.3000    0.0000    0.0000
  band No.  band energies     occupation 
      1     -43.1909      1.00000
      2     -42.9761      1.00000
      3     -42.7914      1.00000
      4     -10.0777      1.00000
      5      -0.4820      1.00000
      6       0.2735      1.00000
      7       0.4136      1.00000
      8       4.1092      0.00000
      9       7.7785      0.00000
     10       8.7174      0.00000
     11      10.2338      0.00000
     12      13.4487      0.00000

 k-point     5 :       0.4000    0.0000    0.0000
  band No.  band energies     occupation 
      1     -43.1563      1.00000
      2     -43.0099      1.00000
      3     -42.7915      1.00000
      4     -10.0507      1.00000
      5      -0.8503      1.00000
      6       0.1941      1.00000
      7       0.4885      1.00000
      8       4.9212      0.00000
      9       6.8313      0.00000
     10       8.3950      0.00000
     11      10.5599      0.00000
     12      12.6121      0.00000

 k-point     6 :       0.5000    0.0000    0.0000
  band No.  band energies     occupation 
      1     -43.1376      1.00000
      2     -43.0282      1.00000
      3     -42.7916      1.00000
      4     -10.0403      1.00000
      5      -0.9778      1.00000
      6       0.1153      1.00000
      7       0.5763      1.00000
      8       5.7406      0.00000
      9       5.9394      0.00000
     10       8.2652      0.00000
     11      10.6268      0.00000
     12      12.3193      0.00000

 k-point     7 :       0.1000    0.1000    0.0000
  band No.  band energies     occupation 
      1     -43.2294      1.00000
      2     -42.9389      1.00000
      3     -42.7913      1.00000
      4     -10.1194      1.00000
      5      -0.0251      1.00000
      6       0.2624      1.00000
      7       0.7832      1.00000
      8       3.1995      0.00000
      9       8.5818      0.00000
     10       9.1925      0.00000
     11       9.2683      0.00000
     12      13.1067      0.00000

 k-point     8 :       0.2000    0.1000    0.0000
  band No.  band energies     occupation 
      1     -43.2028      1.00000
      2     -42.9647      1.00000
      3     -42.7914      1.00000
      4     -10.0894      1.00000
      5      -0.2709      1.00000
      6       0.1866      1.00000
      7       0.4638      1.00000
      8       3.8647      0.00000
      9       8.2196      0.00000
     10       8.8837      0.00000
     11       9.7464      0.00000
     12      13.1548      0.00000

 k-point     9 :       0.3000    0.1000    0.0000
  band No.  band energies     occupation 
      1     -43.1684      1.00000
      2     -42.9979      1.00000
      3     -42.7915      1.00000
      4     -10.0594      1.00000
      5      -0.6901      1.00000
      6       0.1821      1.00000
      7       0.4180      1.00000
      8       4.6276      0.00000
      9       7.4107      0.00000
     10       8.5862      0.00000
     11      10.0424      0.00000
     12      12.4794      0.00000

 k-point    10 :       0.4000    0.1000    0.0000
  band No.  band energies     occupation 
      1     -43.1378      1.00000
      2     -43.0280      1.00000
      3     -42.7916      1.00000
      4     -10.0409      1.00000
      5      -0.9160      1.00000
      6       0.0231      1.00000
      7       0.5729      1.00000
      8       5.4874      0.00000
      9       6.4383      0.00000
     10       8.4017      0.00000
     11      10.1361      0.00000
     12      11.8468      0.00000

 k-point    11 :       0.2000    0.2000    0.0000
  band No.  band energies     occupation 
      1     -43.1727      1.00000
      2     -42.9937      1.00000
      3     -42.7915      1.00000
      4     -10.0629      1.00000
      5      -0.5844      1.00000
      6       0.1196      1.00000
      7       0.3906      1.00000
      8       4.5473      0.00000
      9       7.8354      0.00000
     10       8.7144      0.00000
     11       9.5150      0.00000
     12      12.2450      0.00000

 k-point    12 :       0.3000    0.2000    0.0000
  band No.  band energies     occupation 
      1     -43.1380      1.00000
      2     -43.0276      1.00000
      3     -42.7917      1.00000
      4     -10.0416      1.00000
      5      -0.7823      1.00000
      6      -0.1582      1.00000
      7       0.5675      1.00000
      8       5.3500      0.00000
      9       7.1262      0.00000
     10       8.6796      0.00000
     11       9.2869      0.00000
     12      11.1556      0.00000

 k-point    13 :       0.4000    0.2000    0.0000
  band No.  band energies     occupation 
      1     -43.1165      1.00000
      2     -43.0488      1.00000
      3     -42.7918      1.00000
      4     -10.0336      1.00000
      5      -0.8471      1.00000
      6      -0.2640      1.00000
      7       0.6383      1.00000
      8       6.1320      0.00000
      9       6.3420      0.00000
     10       8.7101      0.00000
     11       9.2179      0.00000
     12      10.7247      0.00000

 k-point    14 :       0.3000    0.3000    0.0000
  band No.  band energies     occupation 
      1     -43.1036      1.00000
      2     -43.0615      1.00000
      3     -42.7918      1.00000
      4     -10.0310      1.00000
      5      -0.7289      1.00000
      6      -0.4692      1.00000
      7       0.6625      1.00000
[...]
     10       9.3195      0.00000
     11      10.2424      0.00000
     12      10.5819      0.00000

 k-point    50 :       0.2000    0.1000    0.3750
  band No.  band energies     occupation 
      1     -43.1181      1.00000
      2     -42.8720      1.00000
      3     -42.6954      1.00000
      4     -10.1177      1.00000
      5      -0.5334      1.00000
      6       0.4849      1.00000
      7       0.7555      1.00000
      8       4.2600      0.00000
      9       8.0291      0.00000
     10       8.8615      0.00000
     11      10.8607      0.00000
     12      10.9109      0.00000

 k-point    51 :       0.3000    0.1000    0.3750
  band No.  band energies     occupation 
      1     -43.0830      1.00000
      2     -42.9064      1.00000
      3     -42.6950      1.00000
      4     -10.1006      1.00000
      5      -0.1732      1.00000
      6       0.3140      1.00000
      7       0.5042      1.00000
      8       3.6995      0.00000
      9       7.0110      0.00000
     10       9.1100      0.00000
     11      10.7549      0.00000
     12      11.4374      0.00000

 k-point    52 :       0.4000    0.1000    0.3750
  band No.  band energies     occupation 
      1     -43.0516      1.00000
      2     -42.9374      1.00000
      3     -42.6948      1.00000
      4     -10.0903      1.00000
      5      -0.2016      1.00000
      6       0.3511      1.00000
      7       0.6464      1.00000
      8       3.1544      0.00000
      9       6.4951      0.00000
     10       9.2756      0.00000
     11      10.6452      0.00000
     12      11.7605      0.00000

 k-point    53 :       0.2000    0.2000    0.3750
  band No.  band energies     occupation 
      1     -43.0873      1.00000
      2     -42.9021      1.00000
      3     -42.6951      1.00000
      4     -10.1026      1.00000
      5      -0.1909      1.00000
      6       0.3319      1.00000
      7       0.4796      1.00000
      8       3.9134      0.00000
      9       6.7642      0.00000
     10       9.0388      0.00000
     11      11.2995      0.00000
     12      11.4602      0.00000

 k-point    54 :       0.3000    0.2000    0.3750
  band No.  band energies     occupation 
      1     -43.0517      1.00000
      2     -42.9373      1.00000
      3     -42.6948      1.00000
      4     -10.0910      1.00000
      5      -0.1357      1.00000
      6       0.2577      1.00000
      7       0.6037      1.00000
      8       3.5597      0.00000
      9       5.7363      0.00000
     10       9.4470      0.00000
     11      11.5991      0.00000
     12      11.6800      0.00000

 k-point    55 :       0.4000    0.2000    0.3750
  band No.  band energies     occupation 
      1     -43.0297      1.00000
      2     -42.9591      1.00000
      3     -42.6947      1.00000
      4     -10.0867      1.00000
      5      -0.1678      1.00000
      6       0.1738      1.00000
      7       0.8336      1.00000
      8       3.3680      0.00000
      9       5.3626      0.00000
     10       9.6406      0.00000
     11      11.6206      0.00000
     12      11.8300      0.00000

 k-point    56 :       0.3000    0.3000    0.3750
  band No.  band energies     occupation 
      1     -43.0162      1.00000
      2     -42.9725      1.00000
      3     -42.6947      1.00000
      4     -10.0855      1.00000
      5      -0.1042      1.00000
      6       0.0530      1.00000
      7       0.8933      1.00000
      8       3.7549      0.00000
      9       4.6351      0.00000
     10       9.9481      0.00000
     11      11.8161      0.00000
     12      11.8874      0.00000

 k-point    57 :       0.0000    0.0000    0.5000
  band No.  band energies     occupation 
      1     -43.1673      1.00000
      2     -42.8237      1.00000
      3     -42.6964      1.00000
      4     -10.1608      1.00000
      5      -1.3351      1.00000
      6       1.3724      1.00000
      7       1.3724      1.00000
      8       5.3350      0.00000
      9       8.0898      0.00000
     10       9.4925      0.00000
     11       9.4926      0.00000
     12      11.7192      0.00000

 k-point    58 :       0.1000    0.0000    0.5000
  band No.  band energies     occupation 
      1     -43.1597      1.00000
      2     -42.8311      1.00000
      3     -42.6963      1.00000
      4     -10.1553      1.00000
      5      -1.2231      1.00000
      6       1.1956      1.00000
      7       1.2656      1.00000
      8       5.1617      0.00000
      9       8.2587      0.00000
     10       9.7282      0.00000
     11       9.8027      0.00000
     12      11.0730      0.00000

 k-point    59 :       0.2000    0.0000    0.5000
  band No.  band energies     occupation 
      1     -43.1381      1.00000
      2     -42.8523      1.00000
      3     -42.6959      1.00000
      4     -10.1409      1.00000
      5      -0.8921      1.00000
      6       0.7887      1.00000
      7       1.0090      1.00000
      8       4.6676      0.00000
      9       8.6057      0.00000
     10       9.4923      0.00000
     11      10.3958      0.00000
     12      10.6421      0.00000

 k-point    60 :       0.3000    0.0000    0.5000
  band No.  band energies     occupation 
      1     -43.1058      1.00000
      2     -42.8838      1.00000
      3     -42.6953      1.00000
      4     -10.1236      1.00000
      5      -0.3639      1.00000
      6       0.3655      1.00000
      7       0.7277      1.00000
      8       3.9079      0.00000
      9       8.2381      0.00000
     10       8.9548      0.00000
     11       9.7889      0.00000
     12      11.2433      0.00000

 k-point    61 :       0.4000    0.0000    0.5000
  band No.  band energies     occupation 
      1     -43.0704      1.00000
      2     -42.9186      1.00000
      3     -42.6949      1.00000
      4     -10.1102      1.00000
      5       0.0685      1.00000
      6       0.2823      1.00000
      7       0.5224      1.00000
      8       3.0341      0.00000
      9       7.5248      0.00000
     10       9.2252      0.00000
     11       9.3781      0.00000
     12      11.9124      0.00000

 k-point    62 :       0.5000    0.0000    0.5000
  band No.  band energies     occupation 
      1     -43.0514      1.00000
      2     -42.9374      1.00000
      3     -42.6947      1.00000
      4     -10.1051      1.00000
      5      -0.0364      1.00000
      6       0.4484      1.00000
      7       0.6841      1.00000
      8       2.5354      0.00000
      9       7.3018      0.00000
     10       9.2392      0.00000
     11       9.3305      0.00000
     12      12.1628      0.00000

 k-point    63 :       0.1000    0.1000    0.5000
  band No.  band energies     occupation 
      1     -43.1451      1.00000
      2     -42.8454      1.00000
      3     -42.6960      1.00000
      4     -10.1453      1.00000
      5      -1.0014      1.00000
      6       0.9132      1.00000
      7       1.0786      1.00000
      8       4.8395      0.00000
      9       8.5241      0.00000
     10       9.5913      0.00000
     11      10.1165      0.00000
     12      10.4277      0.00000

 k-point    64 :       0.2000    0.1000    0.5000
  band No.  band energies     occupation 
      1     -43.1179      1.00000
      2     -42.8720      1.00000
      3     -42.6955      1.00000
      4     -10.1296      1.00000
      5      -0.5707      1.00000
      6       0.5211      1.00000
      7       0.8016      1.00000
      8       4.2649      0.00000
      9       8.0712      0.00000
     10       8.9068      0.00000
     11      10.7979      0.00000
     12      10.7971      0.00000

 k-point    65 :       0.3000    0.1000    0.5000
  band No.  band energies     occupation 
      1     -43.0828      1.00000
      2     -42.9064      1.00000
      3     -42.6950      1.00000
      4     -10.1146      1.00000
      5       0.0259      1.00000
      6       0.1835      1.00000
      7       0.5538      1.00000
      8       3.5035      0.00000
      9       7.0071      0.00000
     10       9.2676      0.00000
     11      10.3722      0.00000
     12      11.5623      0.00000

 k-point    66 :       0.4000    0.1000    0.5000
  band No.  band energies     occupation 
      1     -43.0515      1.00000
      2     -42.9373      1.00000
      3     -42.6948      1.00000
      4     -10.1056      1.00000
      5      -0.0046      1.00000
      6       0.4124      1.00000
      7       0.6150      1.00000
      8       2.7826      0.00000
      9       6.4979      0.00000
     10       9.4937      0.00000
     11      10.1466      0.00000
     12      12.0849      0.00000

 k-point    67 :       0.2000    0.2000    0.5000
  band No.  band energies     occupation 
      1     -43.0872      1.00000
      2     -42.9021      1.00000
      3     -42.6951      1.00000
      4     -10.1164      1.00000
      5      -0.0667      1.00000
      6       0.2504      1.00000
      7       0.5419      1.00000
      8       3.7848      0.00000
      9       6.5626      0.00000
     10       9.3818      0.00000
     11      11.2035      0.00000
     12      11.2785      0.00000

 k-point    68 :       0.3000    0.2000    0.5000
  band No.  band energies     occupation 
      1     -43.0515      1.00000
      2     -42.9372      1.00000
      3     -42.6947      1.00000
      4     -10.1063      1.00000
      5       0.0633      1.00000
      6       0.3379      1.00000
      7       0.5207      1.00000
      8       3.2821      0.00000
      9       5.5153      0.00000
     10       9.8388      0.00000
     11      11.2962      0.00000
     12      11.7934      0.00000

 k-point    69 :       0.4000    0.2000    0.5000
  band No.  band energies     occupation 
      1     -43.0296      1.00000
      2     -42.9590      1.00000
      3     -42.6946      1.00000
      4     -10.1026      1.00000
      5      -0.0018      1.00000
      6       0.2615      1.00000
      7       0.8499      1.00000
      8       2.9853      0.00000
      9       5.1532      0.00000
     10      10.0338      0.00000
     11      11.2897      0.00000
     12      12.1446      0.00000

 k-point    70 :       0.3000    0.3000    0.5000
  band No.  band energies     occupation 
      1     -43.0161      1.00000
      2     -42.9725      1.00000
      3     -42.6946      1.00000
      4     -10.1016      1.00000
      5       0.0434      1.00000
      6       0.1600      1.00000
      7       0.9132      1.00000
      8       3.4197      0.00000
      9       4.3323      0.00000
     10      10.4369      0.00000
     11      11.9217      0.00000
     12      12.1824      0.00000


--------------------------------------------------------------------------------------------------------


 soft charge-density along one line, spin component           1
         0         1         2         3         4         5         6         7         8         9
 total charge-density along one line
 
 soft charge-density along one line, spin component           2
         0         1         2         3         4         5         6         7         8         9
 total charge-density along one line
 
 pseudopotential strength for first ion, spin component:           1
-39.093   3.400   0.000   0.000   0.000
  3.400  -9.804   0.000   0.000   0.000
  0.000   0.000   0.119  -0.000   0.000
  0.000   0.000  -0.000   0.097  -0.000
  0.000   0.000   0.000  -0.000   0.119
 pseudopotential strength for first ion, spin component:           2
-39.093   3.400   0.000   0.000   0.000
  3.400  -9.804   0.000   0.000   0.000
  0.000   0.000   0.119  -0.000   0.000
  0.000   0.000  -0.000   0.097  -0.000
  0.000   0.000   0.000  -0.000   0.119
 total augmentation occupancy for first ion, spin component:           1
  2.001   0.012   0.000   0.000   0.000
  0.012   1.107   0.000   0.000   0.000
  0.000   0.000   0.018   0.000   0.000
  0.000   0.000  -0.000   0.079   0.000
  0.000   0.000   0.000   0.000   0.018
 total augmentation occupancy for first ion, spin component:           2
  0.000   0.000   0.000   0.000   0.000
  0.000   0.000   0.000   0.000   0.000
  0.000   0.000  -0.000   0.000   0.000
  0.000   0.000   0.000   0.000   0.000
  0.000   0.000   0.000  -0.000  -0.000


------------------------ aborting loop because EDIFF is reached ----------------------------------------


 


 total charge     
 
# of ion       s       p       d       tot
------------------------------------------
    1        2.043   0.082   0.000   2.125
    2        2.042   0.089   0.000   2.131
    3        2.042   0.089   0.000   2.131
    4        1.225   2.393   0.000   3.617
--------------------------------------------------
tot          7.351   2.653   0.000  10.004
 


 magnetization (x)
 
# of ion       s       p       d       tot
------------------------------------------
    1        0.000  -0.000   0.000   0.000
    2        0.000   0.000   0.000   0.000
    3        0.000   0.000   0.000   0.000
    4       -0.000  -0.000   0.000  -0.000
--------------------------------------------------
tot          0.000  -0.000   0.000  -0.000
 
    CHARGE:  cpu time    0.0208: real time    0.0208
    FORLOC:  cpu time    0.0004: real time    0.0004
    FORNL :  cpu time    0.1189: real time    0.1190
    STRESS:  cpu time    0.3575: real time    0.3577
    FORCOR:  cpu time    0.0111: real time    0.0111
    FORHAR:  cpu time    0.0014: real time    0.0014
    MIXING:  cpu time    0.0004: real time    0.0004
    OFIELD:  cpu time    0.0000: real time    0.0000

  FORCE on cell =-STRESS in cart. coord.  units (eV):
  Direction    XX          YY          ZZ          XY          YZ          ZX
  --------------------------------------------------------------------------------------
  Alpha Z    14.09888    14.09888    14.09888
  Ewald    -101.32366  -101.32317  -214.98504    -0.00000    -0.00000     0.00000
  Hartree   101.80722   101.80735    15.48426    -0.00000     0.00000    -0.00000
  E(xc)     -62.66273   -62.66273   -62.76468    -0.00000     0.00000     0.00000
  Local    -163.77821  -163.77920    37.07889    -0.00000     0.00000    -0.00000
  n-local   -72.79244   -75.46736   -73.92873    -1.07768    -0.08796     0.49242
  augment    50.72546    50.72594    50.75894    -0.00000     0.00000    -0.00000
  Kinetic   231.40313   239.15714   234.25601     3.84196     0.74205    -3.57578
  Fock        0.00000     0.00000     0.00000     0.00000     0.00000     0.00000
  -------------------------------------------------------------------------------------
  Total       0.01726     0.01726    -0.00147     0.00000    -0.00000    -0.00000
  in kB       0.62478     0.62478    -0.05335     0.00000    -0.00000    -0.00000
  external pressure =        0.40 kB  Pullay stress =        0.00 kB


 VOLUME and BASIS-vectors are now :
 -----------------------------------------------------------------------------
  energy-cutoff  :      520.00
  volume of cell :       44.26
      direct lattice vectors                 reciprocal lattice vectors
     1.817046125 -3.147215930  0.000000000     0.275171881 -0.158870574 -0.000000000
     1.817046125  3.147215930  0.000000000     0.275171881  0.158870574  0.000000000
     0.000000000 -0.000000000  3.869497439    -0.000000000  0.000000000  0.258431493

  length of vectors
     3.634092009  3.634092009  3.869497439     0.317741126  0.317741126  0.258431493


 FORCES acting on ions
    electron-ion (+dipol)            ewald-force                    non-local-force                 convergence-correction
 -----------------------------------------------------------------------------------------------
   0.215E-14 0.571E-14 0.362E-13   0.363E-15 0.359E-15 0.420E-14   -.414E-24 -.250E-23 0.000E+00   -.240E-14 -.377E-14 0.140E-13
   0.122E-12 -.816E-03 0.179E-11   0.279E-14 -.263E-03 -.200E-15   0.000E+00 0.347E-17 0.000E+00   -.112E-14 -.962E-09 -.595E-14
   0.118E-12 0.816E-03 0.239E-11   -.152E-14 0.263E-03 -.249E-15   -.867E-18 -.867E-17 0.000E+00   0.214E-14 0.962E-09 -.726E-14
   -.367E-14 0.453E-15 -.113E-14   -.127E-14 0.459E-15 -.373E-14   -.265E-22 0.533E-22 0.000E+00   -.216E-14 -.826E-14 -.270E-13
 -----------------------------------------------------------------------------------------------
   0.239E-12 -.364E-12 0.422E-11   0.353E-15 -.446E-16 0.174E-16   -.867E-18 -.520E-17 0.000E+00   -.353E-14 -.102E-13 -.262E-13
 
 
 POSITION                                       TOTAL-FORCE (eV/Angst)
 -----------------------------------------------------------------------------------
      0.00000     -0.00000      1.93475        -0.000000      0.000000      0.000000
      1.81705      1.04907      0.00000         0.000000     -0.000000      0.000000
      1.81705     -1.04907      0.00000        -0.000000      0.000000      0.000000
      0.00000     -0.00000      0.00000        -0.000000      0.000000      0.000000
 -----------------------------------------------------------------------------------
    total drift:                                0.000000     -0.000000      0.000000


--------------------------------------------------------------------------------------------------------



  FREE ENERGIE OF THE ION-ELECTRON SYSTEM (eV)
  ---------------------------------------------------
  free  energy   TOTEN  =       -15.62622598 eV

  energy  without entropy=      -15.62622598  energy(sigma->0) =      -15.62622598
 
 d Force = 0.0000000E+00[ 0.000E+00, 0.000E+00]  d Energy = 0.2952834E-03-0.295E-03
 d Force = 0.0000000E+00[ 0.000E+00, 0.000E+00]  d Ewald  = 0.9483244E+00-0.948E+00


--------------------------------------------------------------------------------------------------------


    POTLOK:  cpu time    0.2649: real time    0.2651


--------------------------------------------------------------------------------------------------------




--------------------------------------------------------------------------------------------------------


  
 reached required accuracy - stopping structural energy minimisation
     LOOP+:  cpu time    5.2770: real time    5.2838
    4ORBIT:  cpu time    0.0000: real time    0.0000
 


 total charge     
 
# of ion       s       p       d       tot
------------------------------------------
    1        2.043   0.082   0.000   2.125
    2        2.042   0.089   0.000   2.131
    3        2.042   0.089   0.000   2.131
    4        1.225   2.393   0.000   3.617
--------------------------------------------------
tot          7.351   2.653   0.000  10.004
 


 magnetization (x)
 
# of ion       s       p       d       tot
------------------------------------------
    1        0.000  -0.000   0.000   0.000
    2        0.000   0.000   0.000   0.000
    3        0.000   0.000   0.000   0.000
    4       -0.000  -0.000   0.000  -0.000
--------------------------------------------------
tot          0.000  -0.000   0.000  -0.000
 
 BZINTS: Fermi energy:  1.525558; 14.000000 electrons
         Band energy:-276.409250;  BLOECHL correction:  0.000000

 total amount of memory used by VASP MPI-rank0    33679. kBytes
=======================================================================

   base      :      30000. kBytes
   nonlr-proj:        568. kBytes
   fftplans  :        459. kBytes
   grid      :       1168. kBytes
   one-center:          6. kBytes
   wavefun   :       1478. kBytes
 
  
  
 General timing and accounting informations for this job:
 ========================================================
  
                  Total CPU time used (sec):       24.339
                            User time (sec):       23.083
                          System time (sec):        1.256
                         Elapsed time (sec):       25.609
  
                   Maximum memory used (kb):       67928.
                   Average memory used (kb):           0.
  
                          Minor page faults:        17496
                          Major page faults:            0
                 Voluntary context switches:        45936
