 running on   12 total cores
 distrk:  each k-point on   12 cores,    1 groups
 distr:  one band on    6 cores,    2 groups
 using from now: INCAR     
 vasp.6.1.2 22Jul20 (build Mar 20 2021 11:25:07) complex                        
  
 POSCAR found type information on POSCAR LiP N O 
 POSCAR found :  4 types and      12 ions
 scaLAPACK will be used
 LDA part: xc-table for Pade appr. of Perdew
 generate k-points for:    6    7    7
 POSCAR, INCAR and KPOINTS ok, starting setup
 FFT: planning ...
 WAVECAR not read
 entering main loop
       N       E                     dE             d eps       ncg     rms          rms(c)
DAV:   1     0.410622439390E+03    0.41062E+03   -0.26765E+04 14096   0.143E+03
DAV:   2    -0.404875926230E+02   -0.45111E+03   -0.43115E+03 16264   0.360E+02
DAV:   3    -0.803267491890E+02   -0.39839E+02   -0.39625E+02 20792   0.101E+02
DAV:   4    -0.835592660230E+02   -0.32325E+01   -0.32180E+01 23768   0.233E+01
DAV:   5    -0.838212896332E+02   -0.26202E+00   -0.26200E+00 19752   0.467E+00    0.302E+01
RMM:   6    -0.759549431677E+02    0.78663E+01   -0.30987E+01 15222   0.225E+01    0.122E+01
RMM:   7    -0.765209110971E+02   -0.56597E+00   -0.41496E+00 21048   0.952E+00    0.639E+00
RMM:   8    -0.766687080087E+02   -0.14780E+00   -0.89055E-01 23184   0.461E+00    0.340E+00
RMM:   9    -0.767036218717E+02   -0.34914E-01   -0.24984E-01 22964   0.296E+00    0.951E-01
RMM:  10    -0.767286586791E+02   -0.25037E-01   -0.17232E-01 26071   0.177E+00    0.358E-01
RMM:  11    -0.767379657890E+02   -0.93071E-02   -0.76963E-02 26815   0.107E+00    0.250E-01
RMM:  12    -0.767427519322E+02   -0.47861E-02   -0.33273E-02 27300   0.681E-01    0.140E-01
RMM:  13    -0.767447059498E+02   -0.19540E-02   -0.14398E-02 27144   0.448E-01    0.622E-02
RMM:  14    -0.767454358394E+02   -0.72989E-03   -0.58927E-03 27047   0.315E-01    0.369E-02
RMM:  15    -0.767457540671E+02   -0.31823E-03   -0.29990E-03 26495   0.202E-01    0.218E-02
RMM:  16    -0.767458842837E+02   -0.13022E-03   -0.12261E-03 26186   0.136E-01    0.137E-02
RMM:  17    -0.767459433620E+02   -0.59078E-04   -0.60710E-04 25489   0.954E-02    0.978E-03
RMM:  18    -0.767459777986E+02   -0.34437E-04   -0.28848E-04 25310   0.681E-02    0.576E-03
RMM:  19    -0.767459897586E+02   -0.11960E-04   -0.11900E-04 21961   0.470E-02    0.513E-03
RMM:  20    -0.767459919454E+02   -0.21868E-05   -0.32975E-05 18425   0.375E-02
   1 F= -.76745992E+02 E0= -.76745992E+02  d E =0.000000E+00  mag=     0.0000
