 running on   48 total cores
 distrk:  each k-point on   48 cores,    1 groups
 distr:  one band on    6 cores,    8 groups
 using from now: INCAR     
 vasp.6.1.2 22Jul20 (build Mar 31 2021 18:09:49) complex                        
  
 POSCAR found type information on POSCAR LiP O 
 POSCAR found :  3 types and     100 ions
 scaLAPACK will be used
 LDA part: xc-table for Pade appr. of Perdew
 generate k-points for:    6    3    2
 POSCAR, INCAR and KPOINTS ok, starting setup
 FFT: planning ...
 WAVECAR not read
 entering main loop
       N       E                     dE             d eps       ncg     rms          rms(c)
DAV:   1     0.449340144748E+04    0.44934E+04   -0.25645E+05 27520   0.151E+03
DAV:   2    -0.263440438728E+03   -0.47568E+04   -0.45088E+04 32504   0.387E+02
DAV:   3    -0.715246953057E+03   -0.45181E+03   -0.44854E+03 34304   0.128E+02
DAV:   4    -0.745486864465E+03   -0.30240E+02   -0.30099E+02 47616   0.265E+01
DAV:   5    -0.751830113246E+03   -0.63432E+01   -0.63400E+01 44248   0.722E+00    0.107E+02
DAV:   6    -0.574650546333E+03    0.17718E+03   -0.43607E+02 33392   0.388E+01    0.566E+01
DAV:   7    -0.599481214118E+03   -0.24831E+02   -0.61890E+01 34168   0.137E+01    0.207E+01
DAV:   8    -0.615933831413E+03   -0.16453E+02   -0.12017E+01 33800   0.671E+00    0.120E+01
DAV:   9    -0.637321376189E+03   -0.21388E+02   -0.10723E+01 33440   0.545E+00    0.714E+00
DAV:  10    -0.660770290722E+03   -0.23449E+02   -0.22110E+01 33888   0.664E+00    0.401E+00
DAV:  11    -0.670894960802E+03   -0.10125E+02   -0.12445E+01 34400   0.483E+00    0.266E+00
DAV:  12    -0.672700570535E+03   -0.18056E+01   -0.28168E+00 33888   0.267E+00    0.165E+00
DAV:  13    -0.672809164995E+03   -0.10859E+00   -0.33245E-01 33024   0.107E+00    0.893E-01
DAV:  14    -0.672825376389E+03   -0.16211E-01   -0.58325E-02 35528   0.524E-01    0.529E-01
DAV:  15    -0.672823171457E+03    0.22049E-02   -0.13139E-02 31256   0.267E-01    0.251E-01
DAV:  16    -0.672824072176E+03   -0.90072E-03   -0.41518E-03 38152   0.147E-01    0.944E-02
DAV:  17    -0.672824459875E+03   -0.38770E-03   -0.15223E-03 32696   0.804E-02    0.515E-02
DAV:  18    -0.672824580767E+03   -0.12089E-03   -0.22659E-04 34224   0.367E-02    0.265E-02
DAV:  19    -0.672824604548E+03   -0.23781E-04   -0.51048E-05 27448   0.162E-02    0.129E-02
DAV:  20    -0.672824610264E+03   -0.57162E-05   -0.12463E-05 22400   0.920E-03
   1 F= -.67282461E+03 E0= -.67282461E+03  d E =0.000000E+00  mag=     0.0000
