   14   14    1    2
  0.1248544E+02  0.8597421E-09  0.8745663E-09  0.4937041E-09  0.5000000E-15
  1.000000000000000E-004
  CAR 
 unknown system                          
     80    197     52
 
  0.0000000E+00  0.0000000E+00  0.0000000E+00  0.2551020E-02
    1      -22.887349    -22.887253   1.000000   1.000000
    2      -21.731209    -21.731116   1.000000   1.000000
    3      -20.820657    -20.820561   1.000000   1.000000
    4      -19.169876    -19.169803   1.000000   1.000000
    5      -18.898713    -18.898650   1.000000   1.000000
    6      -18.673165    -18.673094   1.000000   1.000000
    7      -17.425829    -17.425748   1.000000   1.000000
    8      -16.994187    -16.994110   1.000000   1.000000
    9      -16.854066    -16.853994   1.000000   1.000000
   10      -16.501419    -16.501340   1.000000   1.000000
   11      -12.657817    -12.657696   1.000000   1.000000
   12      -10.713651    -10.713529   1.000000   1.000000
   13       -8.684686     -8.684567   1.000000   1.000000
   14       -7.511139     -7.511028   1.000000   1.000000
   15       -7.160336     -7.160229   1.000000   1.000000
   16       -6.907165     -6.907051   1.000000   1.000000
   17       -5.734477     -5.734378   1.000000   1.000000
   18       -5.117093     -5.116987   1.000000   1.000000
   19       -4.653311     -4.653193   1.000000   1.000000
   20       -4.007691     -4.007605   1.000000   1.000000
   21       -3.819983     -3.819888   1.000000   1.000000
   22       -3.569505     -3.569416   1.000000   1.000000
   23       -3.367046     -3.366958   1.000000   1.000000
   24       -3.155333     -3.155233   1.000000   1.000000
   25       -2.902253     -2.902177   1.000000   1.000000
   26       -2.574769     -2.574685   1.000000   1.000000
   27       -1.854841     -1.854767   1.000000   1.000000
   28       -1.472329     -1.472274   1.000000   1.000000
   29       -1.319501     -1.319455   1.000000   1.000000
   30       -1.194286     -1.194227   1.000000   1.000000
   31       -1.115713     -1.115661   1.000000   1.000000
   32       -0.735197     -0.735150   1.000000   1.000000
   33       -0.308082     -0.308008   1.000000   1.000000
   34       -0.123487     -0.123430   1.000000   1.000000
   35        0.041517      0.041583   1.000000   1.000000
   36        0.065233      0.065297   1.000000   1.000000
   37        0.321624      0.321672   1.000000   1.000000
   38        0.416312      0.416365   1.000000   1.000000
   39        0.536677      0.536738   1.000000   1.000000
   40        0.550578      0.550624   1.000000   1.000000
   41        6.117974      6.118132   0.000002   0.000000
   42        7.467332      7.467558   0.000000   0.000000
   43        7.757003      7.757170   0.000000   0.000000
   44        8.407200      8.407422   0.000000   0.000000
   45        9.045094      9.045331   0.000000   0.000000
   46        9.157831      9.158020   0.000000   0.000000
   47        9.713423      9.713662   0.000000   0.000000
   48       10.031551     10.031778   0.000000   0.000000
   49       10.261295     10.261471   0.000000   0.000000
   50       10.392215     10.392449   0.000000   0.000000
   51       10.652504     10.652673   0.000000   0.000000
   52       11.025817     11.026425   0.000000   0.000000
 
  0.1250000E+00 -0.6123158E-17  0.6881849E-15  0.5102041E-02
    1      -22.856954    -22.856859   1.000000   1.000000
    2      -21.755053    -21.754959   1.000000   1.000000
    3      -20.783628    -20.783534   1.000000   1.000000
    4      -19.279086    -19.279010   1.000000   1.000000
    5      -18.902753    -18.902689   1.000000   1.000000
    6      -18.668155    -18.668084   1.000000   1.000000
    7      -17.408686    -17.408607   1.000000   1.000000
    8      -16.985954    -16.985877   1.000000   1.000000
    9      -16.866193    -16.866120   1.000000   1.000000
   10      -16.495671    -16.495593   1.000000   1.000000
   11      -12.549834    -12.549713   1.000000   1.000000
   12      -10.709005    -10.708885   1.000000   1.000000
   13       -8.746833     -8.746714   1.000000   1.000000
   14       -7.495231     -7.495121   1.000000   1.000000
   15       -7.132047     -7.131942   1.000000   1.000000
   16       -6.893339     -6.893225   1.000000   1.000000
   17       -5.705762     -5.705663   1.000000   1.000000
   18       -5.067772     -5.067666   1.000000   1.000000
   19       -4.646247     -4.646132   1.000000   1.000000
   20       -4.124733     -4.124642   1.000000   1.000000
   21       -3.801132     -3.801038   1.000000   1.000000
   22       -3.592460     -3.592367   1.000000   1.000000
   23       -3.314156     -3.314069   1.000000   1.000000
   24       -3.145766     -3.145669   1.000000   1.000000
   25       -2.883867     -2.883793   1.000000   1.000000
   26       -2.608185     -2.608098   1.000000   1.000000
   27       -1.854312     -1.854240   1.000000   1.000000
   28       -1.519681     -1.519626   1.000000   1.000000
   29       -1.427315     -1.427261   1.000000   1.000000
   30       -1.224480     -1.224422   1.000000   1.000000
   31       -1.166676     -1.166626   1.000000   1.000000
   32       -0.763783     -0.763739   1.000000   1.000000
   33       -0.295952     -0.295879   1.000000   1.000000
   34       -0.104058     -0.104002   1.000000   1.000000
   35        0.060967      0.061031   1.000000   1.000000
   36        0.084670      0.084733   1.000000   1.000000
   37        0.283598      0.283650   1.000000   1.000000
   38        0.415138      0.415191   1.000000   1.000000
   39        0.513087      0.513143   1.000000   1.000000
   40        0.567878      0.567929   1.000000   1.000000
   41        6.250717      6.250881   0.000000   0.000000
   42        7.538524      7.538741   0.000000   0.000000
   43        7.857339      7.857517   0.000000   0.000000
   44        8.459182      8.459405   0.000000   0.000000
   45        9.098672      9.098874   0.000000   0.000000
   46        9.261678      9.261895   0.000000   0.000000
   47        9.702346      9.702580   0.000000   0.000000
   48        9.973280      9.973512   0.000000   0.000000
   49       10.170152     10.170329   0.000000   0.000000
   50       10.425704     10.425936   0.000000   0.000000
   51       10.732497     10.732695   0.000000   0.000000
   52       11.014751     11.014315   0.000000   0.000000
 
  0.2500000E+00 -0.1224632E-16  0.1376370E-14  0.5102041E-02
    1      -22.776940    -22.776847   1.000000   1.000000
    2      -21.813985    -21.813890   1.000000   1.000000
    3      -20.691400    -20.691307   1.000000   1.000000
    4      -19.526424    -19.526341   1.000000   1.000000
    5      -18.905473    -18.905409   1.000000   1.000000
    6      -18.665673    -18.665601   1.000000   1.000000
    7      -17.394729    -17.394652   1.000000   1.000000
    8      -16.961192    -16.961116   1.000000   1.000000
    9      -16.894492    -16.894419   1.000000   1.000000
   10      -16.481656    -16.481578   1.000000   1.000000
   11      -12.260491    -12.260370   1.000000   1.000000
   12      -10.732035    -10.731918   1.000000   1.000000
   13       -8.852801     -8.852680   1.000000   1.000000
   14       -7.563159     -7.563048   1.000000   1.000000
   15       -7.028735     -7.028633   1.000000   1.000000
   16       -6.804131     -6.804017   1.000000   1.000000
   17       -5.636128     -5.636029   1.000000   1.000000
   18       -4.941416     -4.941310   1.000000   1.000000
   19       -4.639104     -4.638998   1.000000   1.000000
   20       -4.288897     -4.288798   1.000000   1.000000
   21       -3.903456     -3.903355   1.000000   1.000000
   22       -3.648264     -3.648165   1.000000   1.000000
   23       -3.238193     -3.238108   1.000000   1.000000
   24       -3.095452     -3.095365   1.000000   1.000000
   25       -2.853570     -2.853491   1.000000   1.000000
   26       -2.622789     -2.622703   1.000000   1.000000
   27       -1.851311     -1.851241   1.000000   1.000000
   28       -1.744481     -1.744421   1.000000   1.000000
   29       -1.563389     -1.563328   1.000000   1.000000
   30       -1.388355     -1.388300   1.000000   1.000000
   31       -1.225755     -1.225702   1.000000   1.000000
   32       -0.827477     -0.827436   1.000000   1.000000
   33       -0.265513     -0.265442   1.000000   1.000000
   34       -0.074924     -0.074867   1.000000   1.000000
   35        0.016846      0.016906   1.000000   1.000000
   36        0.141378      0.141442   1.000000   1.000000
   37        0.270525      0.270585   1.000000   1.000000
   38        0.410609      0.410657   1.000000   1.000000
   39        0.506798      0.506858   1.000000   1.000000
   40        0.601382      0.601435   1.000000   1.000000
   41        6.513418      6.513600   0.000000   0.000000
   42        7.712558      7.712765   0.000000   0.000000
   43        8.125662      8.125855   0.000000   0.000000
   44        8.611503      8.611728   0.000000   0.000000
   45        9.213642      9.213844   0.000000   0.000000
   46        9.498797      9.499007   0.000000   0.000000
   47        9.682906      9.683131   0.000000   0.000000
   48        9.904367      9.904599   0.000000   0.000000
   49       10.112524     10.112714   0.000000   0.000000
   50       10.450903     10.451121   0.000000   0.000000
   51       10.790669     10.790929   0.000000   0.000000
   52       10.967315     10.967812   0.000000   0.000000
 
  0.3750000E+00  0.8366830E-17  0.2154324E-14  0.5102041E-02
    1      -22.683953    -22.683861   1.000000   1.000000
    2      -21.879613    -21.879517   1.000000   1.000000
    3      -20.586572    -20.586483   1.000000   1.000000
    4      -19.768180    -19.768092   1.000000   1.000000
    5      -18.905844    -18.905781   1.000000   1.000000
    6      -18.668019    -18.667946   1.000000   1.000000
    7      -17.405058    -17.404982   1.000000   1.000000
    8      -16.938996    -16.938921   1.000000   1.000000
    9      -16.917746    -16.917672   1.000000   1.000000
   10      -16.467856    -16.467778   1.000000   1.000000
   11      -11.894177    -11.894056   1.000000   1.000000
   12      -10.848931    -10.848818   1.000000   1.000000
   13       -8.892242     -8.892119   1.000000   1.000000
   14       -7.700639     -7.700527   1.000000   1.000000
   15       -6.956694     -6.956595   1.000000   1.000000
   16       -6.622640     -6.622527   1.000000   1.000000
   17       -5.564325     -5.564225   1.000000   1.000000
   18       -4.852527     -4.852425   1.000000   1.000000
   19       -4.676483     -4.676384   1.000000   1.000000
   20       -4.318014     -4.317908   1.000000   1.000000
   21       -4.030290     -4.030182   1.000000   1.000000
   22       -3.781754     -3.781648   1.000000   1.000000
   23       -3.190569     -3.190484   1.000000   1.000000
   24       -3.078211     -3.078127   1.000000   1.000000
   25       -2.828512     -2.828428   1.000000   1.000000
   26       -2.537396     -2.537322   1.000000   1.000000
   27       -1.990350     -1.990280   1.000000   1.000000
   28       -1.830727     -1.830663   1.000000   1.000000
   29       -1.695210     -1.695148   1.000000   1.000000
   30       -1.577473     -1.577416   1.000000   1.000000
   31       -1.273727     -1.273674   1.000000   1.000000
   32       -0.877924     -0.877883   1.000000   1.000000
   33       -0.250948     -0.250880   1.000000   1.000000
   34       -0.152499     -0.152434   1.000000   1.000000
   35        0.046212      0.046269   1.000000   1.000000
   36        0.101371      0.101435   1.000000   1.000000
   37        0.352319      0.352376   1.000000   1.000000
   38        0.473420      0.473471   1.000000   1.000000
   39        0.517640      0.517698   1.000000   1.000000
   40        0.612941      0.612995   1.000000   1.000000
   41        6.697284      6.697481   0.000000   0.000000
   42        7.874709      7.874924   0.000000   0.000000
   43        8.481693      8.481896   0.000000   0.000000
   44        8.789846      8.790074   0.000000   0.000000
   45        9.370608      9.370838   0.000000   0.000000
   46        9.545957      9.546175   0.000000   0.000000
   47        9.737113      9.737323   0.000000   0.000000
   48        9.910632      9.910859   0.000000   0.000000
   49       10.191553     10.191734   0.000000   0.000000
   50       10.482310     10.482489   0.000000   0.000000
   51       10.694223     10.694418   0.000000   0.000000
   52       10.915586     10.915497   0.000000   0.000000
 
  0.5000000E+00 -0.2449263E-16  0.2752740E-14  0.2551020E-02
    1      -22.639746    -22.639656   1.000000   1.000000
    2      -21.910721    -21.910624   1.000000   1.000000
    3      -20.533740    -20.533653   1.000000   1.000000
    4      -19.874063    -19.873971   1.000000   1.000000
    5      -18.905772    -18.905708   1.000000   1.000000
    6      -18.669466    -18.669393   1.000000   1.000000
    7      -17.413573    -17.413497   1.000000   1.000000
    8      -16.940928    -16.940854   1.000000   1.000000
    9      -16.916616    -16.916541   1.000000   1.000000
   10      -16.462243    -16.462166   1.000000   1.000000
   11      -11.682151    -11.682028   1.000000   1.000000
   12      -10.965233    -10.965123   1.000000   1.000000
   13       -8.884225     -8.884102   1.000000   1.000000
   14       -7.771920     -7.771809   1.000000   1.000000
   15       -6.933270     -6.933171   1.000000   1.000000
   16       -6.526460     -6.526348   1.000000   1.000000
   17       -5.533267     -5.533168   1.000000   1.000000
   18       -4.882598     -4.882502   1.000000   1.000000
   19       -4.676501     -4.676398   1.000000   1.000000
   20       -4.262482     -4.262377   1.000000   1.000000
   21       -4.093234     -4.093121   1.000000   1.000000
   22       -3.844309     -3.844201   1.000000   1.000000
   23       -3.195738     -3.195651   1.000000   1.000000
   24       -3.084724     -3.084639   1.000000   1.000000
   25       -2.806488     -2.806407   1.000000   1.000000
   26       -2.492260     -2.492191   1.000000   1.000000
   27       -2.045083     -2.045009   1.000000   1.000000
   28       -1.877079     -1.877015   1.000000   1.000000
   29       -1.737557     -1.737491   1.000000   1.000000
   30       -1.651982     -1.651927   1.000000   1.000000
   31       -1.295500     -1.295448   1.000000   1.000000
   32       -0.894520     -0.894480   1.000000   1.000000
   33       -0.251457     -0.251388   1.000000   1.000000
   34       -0.211379     -0.211314   1.000000   1.000000
   35        0.066465      0.066522   1.000000   1.000000
   36        0.097131      0.097196   1.000000   1.000000
   37        0.408738      0.408787   1.000000   1.000000
   38        0.483777      0.483841   1.000000   1.000000
   39        0.530846      0.530898   1.000000   1.000000
   40        0.614278      0.614331   1.000000   1.000000
   41        6.754251      6.754454   0.000000   0.000000
   42        7.927611      7.927832   0.000000   0.000000
   43        8.731874      8.732099   0.000000   0.000000
   44        8.811679      8.811901   0.000000   0.000000
   45        9.406587      9.406832   0.000000   0.000000
   46        9.611650      9.611860   0.000000   0.000000
   47        9.760906      9.761133   0.000000   0.000000
   48        9.909381      9.909623   0.000000   0.000000
   49       10.280409     10.280551   0.000000   0.000000
   50       10.368464     10.368593   0.000000   0.000000
   51       10.708351     10.708535   0.000000   0.000000
   52       10.871135     10.871236   0.000000   0.000000
 
 -0.3108617E-18  0.1428571E+00 -0.3374904E-14  0.5102041E-02
    1      -22.853637    -22.853542   1.000000   1.000000
    2      -21.726637    -21.726545   1.000000   1.000000
    3      -20.833900    -20.833804   1.000000   1.000000
    4      -19.237468    -19.237393   1.000000   1.000000
    5      -18.901924    -18.901860   1.000000   1.000000
    6      -18.705228    -18.705155   1.000000   1.000000
    7      -17.408130    -17.408051   1.000000   1.000000
    8      -16.984604    -16.984527   1.000000   1.000000
    9      -16.869772    -16.869699   1.000000   1.000000
   10      -16.493680    -16.493601   1.000000   1.000000
   11      -12.539181    -12.539060   1.000000   1.000000
   12      -10.656399    -10.656279   1.000000   1.000000
   13       -8.799139     -8.799020   1.000000   1.000000
   14       -7.527902     -7.527790   1.000000   1.000000
   15       -7.134568     -7.134463   1.000000   1.000000
   16       -6.843611     -6.843497   1.000000   1.000000
   17       -5.685845     -5.685746   1.000000   1.000000
   18       -5.047559     -5.047454   1.000000   1.000000
   19       -4.660714     -4.660599   1.000000   1.000000
   20       -4.148383     -4.148289   1.000000   1.000000
   21       -3.786310     -3.786219   1.000000   1.000000
   22       -3.545202     -3.545109   1.000000   1.000000
   23       -3.337481     -3.337394   1.000000   1.000000
   24       -3.146561     -3.146467   1.000000   1.000000
   25       -2.936333     -2.936254   1.000000   1.000000
   26       -2.577038     -2.576953   1.000000   1.000000
   27       -1.881211     -1.881138   1.000000   1.000000
   28       -1.566371     -1.566311   1.000000   1.000000
   29       -1.424373     -1.424321   1.000000   1.000000
   30       -1.248427     -1.248370   1.000000   1.000000
   31       -1.172659     -1.172609   1.000000   1.000000
   32       -0.757787     -0.757743   1.000000   1.000000
   33       -0.294337     -0.294265   1.000000   1.000000
   34       -0.111879     -0.111820   1.000000   1.000000
   35        0.052441      0.052504   1.000000   1.000000
   36        0.112043      0.112105   1.000000   1.000000
   37        0.296874      0.296924   1.000000   1.000000
   38        0.416845      0.416898   1.000000   1.000000
   39        0.514042      0.514103   1.000000   1.000000
   40        0.559145      0.559194   1.000000   1.000000
   41        6.311005      6.311170  -0.000000  -0.000000
   42        7.501024      7.501231   0.000000   0.000000
   43        7.886494      7.886681   0.000000   0.000000
   44        8.524051      8.524274   0.000000   0.000000
   45        9.168658      9.168875   0.000000   0.000000
   46        9.217621      9.217829   0.000000   0.000000
   47        9.683337      9.683556   0.000000   0.000000
   48        9.940576      9.940812   0.000000   0.000000
   49       10.251923     10.252120   0.000000   0.000000
   50       10.404858     10.405078   0.000000   0.000000
   51       10.617892     10.618111   0.000000   0.000000
   52       11.070872     11.076936   0.000000   0.000000
 
  0.1250000E+00  0.1428571E+00 -0.2654455E-14  0.5102041E-02
    1      -22.881125    -22.881030   1.000000   1.000000
    2      -21.764728    -21.764634   1.000000   1.000000
    3      -20.770727    -20.770633   1.000000   1.000000
    4      -19.180851    -19.180776   1.000000   1.000000
    5      -18.897339    -18.897276   1.000000   1.000000
    6      -18.708314    -18.708243   1.000000   1.000000
    7      -17.407409    -17.407329   1.000000   1.000000
    8      -16.994220    -16.994143   1.000000   1.000000
    9      -16.853450    -16.853378   1.000000   1.000000
   10      -16.501763    -16.501684   1.000000   1.000000
   11      -12.608846    -12.608725   1.000000   1.000000
   12      -10.813664    -10.813542   1.000000   1.000000
   13       -8.599878     -8.599760   1.000000   1.000000
   14       -7.535352     -7.535240   1.000000   1.000000
   15       -7.151466     -7.151359   1.000000   1.000000
   16       -6.909387     -6.909274   1.000000   1.000000
   17       -5.754315     -5.754215   1.000000   1.000000
   18       -5.129734     -5.129628   1.000000   1.000000
   19       -4.628402     -4.628285   1.000000   1.000000
   20       -4.012399     -4.012311   1.000000   1.000000
   21       -3.796593     -3.796499   1.000000   1.000000
   22       -3.576543     -3.576454   1.000000   1.000000
   23       -3.367811     -3.367722   1.000000   1.000000
   24       -3.189376     -3.189279   1.000000   1.000000
   25       -2.868352     -2.868275   1.000000   1.000000
   26       -2.562503     -2.562418   1.000000   1.000000
   27       -1.856644     -1.856570   1.000000   1.000000
   28       -1.519417     -1.519362   1.000000   1.000000
   29       -1.286972     -1.286925   1.000000   1.000000
   30       -1.194444     -1.194386   1.000000   1.000000
   31       -1.107728     -1.107676   1.000000   1.000000
   32       -0.746538     -0.746491   1.000000   1.000000
   33       -0.310339     -0.310266   1.000000   1.000000
   34       -0.138243     -0.138185   1.000000   1.000000
   35        0.035205      0.035271   1.000000   1.000000
   36        0.058563      0.058626   1.000000   1.000000
   37        0.316592      0.316641   1.000000   1.000000
   38        0.413722      0.413775   1.000000   1.000000
   39        0.536722      0.536778   1.000000   1.000000
   40        0.558164      0.558216   1.000000   1.000000
   41        6.195636      6.195794   0.000000   0.000000
   42        7.433388      7.433604   0.000000   0.000000
   43        7.801410      7.801584   0.000000   0.000000
   44        8.428978      8.429193   0.000000   0.000000
   45        9.006390      9.006599   0.000000   0.000000
   46        9.143736      9.143959   0.000000   0.000000
   47        9.702786      9.703020   0.000000   0.000000
   48        9.913914      9.914129   0.000000   0.000000
   49       10.276583     10.276774   0.000000   0.000000
   50       10.367262     10.367482   0.000000   0.000000
   51       10.704887     10.705096   0.000000   0.000000
   52       11.083897     11.082802   0.000000   0.000000
 
  0.2500000E+00  0.1428571E+00 -0.1965402E-14  0.5102041E-02
    1      -22.850123    -22.850028   1.000000   1.000000
    2      -21.826537    -21.826441   1.000000   1.000000
    3      -20.663039    -20.662948   1.000000   1.000000
    4      -19.332791    -19.332711   1.000000   1.000000
    5      -18.902075    -18.902011   1.000000   1.000000
    6      -18.691122    -18.691052   1.000000   1.000000
    7      -17.382998    -17.382920   1.000000   1.000000
    8      -16.986611    -16.986534   1.000000   1.000000
    9      -16.861637    -16.861565   1.000000   1.000000
   10      -16.498092    -16.498014   1.000000   1.000000
   11      -12.467254    -12.467134   1.000000   1.000000
   12      -10.935219    -10.935097   1.000000   1.000000
   13       -8.551286     -8.551167   1.000000   1.000000
   14       -7.527254     -7.527143   1.000000   1.000000
   15       -7.111783     -7.111679   1.000000   1.000000
   16       -6.930710     -6.930596   1.000000   1.000000
   17       -5.758104     -5.758004   1.000000   1.000000
   18       -5.107125     -5.107019   1.000000   1.000000
   19       -4.589130     -4.589015   1.000000   1.000000
   20       -4.095406     -4.095316   1.000000   1.000000
   21       -3.818653     -3.818554   1.000000   1.000000
   22       -3.608519     -3.608429   1.000000   1.000000
   23       -3.312864     -3.312778   1.000000   1.000000
   24       -3.188083     -3.187989   1.000000   1.000000
   25       -2.796142     -2.796070   1.000000   1.000000
   26       -2.597723     -2.597634   1.000000   1.000000
   27       -1.844400     -1.844328   1.000000   1.000000
   28       -1.591696     -1.591641   1.000000   1.000000
   29       -1.340042     -1.339989   1.000000   1.000000
   30       -1.195949     -1.195892   1.000000   1.000000
   31       -1.151220     -1.151169   1.000000   1.000000
   32       -0.786641     -0.786597   1.000000   1.000000
   33       -0.300123     -0.300051   1.000000   1.000000
   34       -0.128016     -0.127959   1.000000   1.000000
   35        0.040245      0.040311   1.000000   1.000000
   36        0.066323      0.066389   1.000000   1.000000
   37        0.269679      0.269733   1.000000   1.000000
   38        0.413469      0.413521   1.000000   1.000000
   39        0.521465      0.521517   1.000000   1.000000
   40        0.577421      0.577474   1.000000   1.000000
   41        6.330190      6.330354   0.000000   0.000000
   42        7.511323      7.511535   0.000000   0.000000
   43        7.917987      7.918167   0.000000   0.000000
   44        8.412093      8.412306   0.000000   0.000000
   45        8.984832      8.985019   0.000000   0.000000
   46        9.268191      9.268428   0.000000   0.000000
   47        9.666560      9.666790   0.000000   0.000000
   48        9.861240      9.861453   0.000000   0.000000
   49       10.138157     10.138349   0.000000   0.000000
   50       10.433211     10.433434   0.000000   0.000000
   51       10.833021     10.833214   0.000000   0.000000
   52       11.056387     11.056510   0.000000   0.000000
 
  0.3750000E+00  0.1428571E+00 -0.1263340E-14  0.5102041E-02
    1      -22.771649    -22.771556   1.000000   1.000000
    2      -21.883075    -21.882978   1.000000   1.000000
    3      -20.557679    -20.557592   1.000000   1.000000
    4      -19.587533    -19.587447   1.000000   1.000000
    5      -18.904848    -18.904784   1.000000   1.000000
    6      -18.685529    -18.685458   1.000000   1.000000
    7      -17.377471    -17.377395   1.000000   1.000000
    8      -16.958889    -16.958812   1.000000   1.000000
    9      -16.889137    -16.889064   1.000000   1.000000
   10      -16.484582    -16.484504   1.000000   1.000000
   11      -12.133126    -12.133007   1.000000   1.000000
   12      -11.047791    -11.047671   1.000000   1.000000
   13       -8.583782     -8.583662   1.000000   1.000000
   14       -7.662706     -7.662594   1.000000   1.000000
   15       -7.022551     -7.022450   1.000000   1.000000
   16       -6.800916     -6.800803   1.000000   1.000000
   17       -5.701097     -5.700996   1.000000   1.000000
   18       -4.974433     -4.974327   1.000000   1.000000
   19       -4.567334     -4.567228   1.000000   1.000000
   20       -4.258979     -4.258881   1.000000   1.000000
   21       -3.932580     -3.932475   1.000000   1.000000
   22       -3.672268     -3.672171   1.000000   1.000000
   23       -3.242997     -3.242914   1.000000   1.000000
   24       -3.139413     -3.139327   1.000000   1.000000
   25       -2.750446     -2.750371   1.000000   1.000000
   26       -2.579785     -2.579700   1.000000   1.000000
   27       -1.879116     -1.879046   1.000000   1.000000
   28       -1.802584     -1.802522   1.000000   1.000000
   29       -1.467535     -1.467477   1.000000   1.000000
   30       -1.367662     -1.367605   1.000000   1.000000
   31       -1.208987     -1.208934   1.000000   1.000000
   32       -0.840589     -0.840548   1.000000   1.000000
   33       -0.267399     -0.267329   1.000000   1.000000
   34       -0.114299     -0.114238   1.000000   1.000000
   35        0.027144      0.027205   1.000000   1.000000
   36        0.133168      0.133233   1.000000   1.000000
   37        0.241288      0.241348   1.000000   1.000000
   38        0.418196      0.418243   1.000000   1.000000
   39        0.506908      0.506967   1.000000   1.000000
   40        0.605045      0.605099   1.000000   1.000000
   41        6.579814      6.579995   0.000000   0.000000
   42        7.696291      7.696495   0.000000   0.000000
   43        8.194757      8.194946   0.000000   0.000000
   44        8.510009      8.510228   0.000000   0.000000
   45        9.108461      9.108656   0.000000   0.000000
   46        9.536201      9.536411   0.000000   0.000000
   47        9.634077      9.634302   0.000000   0.000000
   48        9.816370      9.816597   0.000000   0.000000
   49       10.064621     10.064823   0.000000   0.000000
   50       10.451445     10.451657   0.000000   0.000000
   51       10.832893     10.833124   0.000000   0.000000
   52       11.016530     11.017454   0.000000   0.000000
 
  0.5000000E+00  0.1428571E+00 -0.6349164E-15  0.5102041E-02
    1      -22.683890    -22.683799   1.000000   1.000000
    2      -21.911342    -21.911244   1.000000   1.000000
    3      -20.519048    -20.518962   1.000000   1.000000
    4      -19.788674    -19.788583   1.000000   1.000000
    5      -18.905594    -18.905531   1.000000   1.000000
    6      -18.685860    -18.685787   1.000000   1.000000
    7      -17.396649    -17.396573   1.000000   1.000000
    8      -16.932249    -16.932174   1.000000   1.000000
    9      -16.919739    -16.919665   1.000000   1.000000
   10      -16.469556    -16.469479   1.000000   1.000000
   11      -11.755018    -11.754898   1.000000   1.000000
   12      -11.119957    -11.119841   1.000000   1.000000
   13       -8.699528     -8.699407   1.000000   1.000000
   14       -7.785384     -7.785272   1.000000   1.000000
   15       -6.966681     -6.966581   1.000000   1.000000
   16       -6.604259     -6.604147   1.000000   1.000000
   17       -5.607736     -5.607635   1.000000   1.000000
   18       -4.856505     -4.856403   1.000000   1.000000
   19       -4.626464     -4.626368   1.000000   1.000000
   20       -4.320290     -4.320183   1.000000   1.000000
   21       -4.029587     -4.029477   1.000000   1.000000
   22       -3.798351     -3.798248   1.000000   1.000000
   23       -3.217876     -3.217791   1.000000   1.000000
   24       -3.087766     -3.087682   1.000000   1.000000
   25       -2.751250     -2.751170   1.000000   1.000000
   26       -2.490919     -2.490845   1.000000   1.000000
   27       -2.094192     -2.094118   1.000000   1.000000
   28       -1.842726     -1.842661   1.000000   1.000000
   29       -1.630410     -1.630350   1.000000   1.000000
   30       -1.550354     -1.550296   1.000000   1.000000
   31       -1.262279     -1.262226   1.000000   1.000000
   32       -0.877742     -0.877701   1.000000   1.000000
   33       -0.246680     -0.246612   1.000000   1.000000
   34       -0.176025     -0.175960   1.000000   1.000000
   35        0.054291      0.054351   1.000000   1.000000