       N       E                     dE             d eps       ncg     rms          rms(c)
DAV:   1     0.549026029754E+03    0.54903E+03   -0.43729E+04 41184   0.144E+03
DAV:   2    -0.724613966350E+02   -0.62149E+03   -0.60451E+03 51248   0.342E+02
DAV:   3    -0.108117220612E+03   -0.35656E+02   -0.35430E+02 49480   0.881E+01
DAV:   4    -0.108638619301E+03   -0.52140E+00   -0.51949E+00 50640   0.113E+01
DAV:   5    -0.108650013352E+03   -0.11394E-01   -0.11379E-01 49656   0.160E+00    0.480E+01
DAV:   6    -0.926818800040E+02    0.15968E+02   -0.54233E+01 46064   0.352E+01    0.253E+01
DAV:   7    -0.955877724313E+02   -0.29059E+01   -0.82718E+00 48092   0.119E+01    0.713E+00
DAV:   8    -0.958568957693E+02   -0.26912E+00   -0.85494E-01 49180   0.438E+00    0.322E+00
DAV:   9    -0.958557875906E+02    0.11082E-02   -0.48281E-02 48948   0.147E+00    0.160E+00
DAV:  10    -0.958554368738E+02    0.35072E-03   -0.21578E-02 55532   0.955E-01    0.469E-01
DAV:  11    -0.958570100693E+02   -0.15732E-02   -0.42015E-03 48056   0.361E-01    0.254E-01
DAV:  12    -0.958572679791E+02   -0.25791E-03   -0.11542E-03 50068   0.193E-01    0.111E-01
DAV:  13    -0.958573399626E+02   -0.71984E-04   -0.10088E-04 49048   0.627E-02    0.482E-02
DAV:  14    -0.958573653630E+02   -0.25400E-04   -0.48754E-05 46756   0.393E-02    0.171E-02
DAV:  15    -0.958573722840E+02   -0.69209E-05   -0.66308E-06 29032   0.160E-02
   1 F= -.95857372E+02 E0= -.95857372E+02  d E =0.000000E+00  mag=    -0.0008
