   26   26    1    2
  0.1212048E+02  0.5352683E-09  0.7356759E-09  0.8819969E-09  0.5000000E-15
  1.000000000000000E-004
  CAR 
 unknown system                          
    128     62     88
 
  0.0000000E+00  0.0000000E+00  0.0000000E+00  0.8333333E-02
    1      -42.455166    -42.455253   1.000000   1.000000
    2      -42.454714    -42.454802   1.000000   1.000000
    3      -42.363151    -42.363237   1.000000   1.000000
    4      -42.362894    -42.362979   1.000000   1.000000
    5      -42.295033    -42.295123   1.000000   1.000000
    6      -42.284244    -42.284334   1.000000   1.000000
    7      -42.279067    -42.279157   1.000000   1.000000
    8      -42.278945    -42.279035   1.000000   1.000000
    9      -19.982497    -19.982508   1.000000   1.000000
   10      -19.927961    -19.927972   1.000000   1.000000
   11      -18.831400    -18.831418   1.000000   1.000000
   12      -18.807067    -18.807085   1.000000   1.000000
   13      -17.658337    -17.658369   1.000000   1.000000
   14      -17.597366    -17.597397   1.000000   1.000000
   15      -17.110872    -17.110918   1.000000   1.000000
   16      -17.085456    -17.085502   1.000000   1.000000
   17      -16.929618    -16.929658   1.000000   1.000000
   18      -16.919275    -16.919315   1.000000   1.000000
   19      -16.849469    -16.849512   1.000000   1.000000
   20      -16.835204    -16.835248   1.000000   1.000000
   21      -16.781348    -16.781385   1.000000   1.000000
   22      -16.778156    -16.778193   1.000000   1.000000
   23       -8.762850     -8.762847   1.000000   1.000000
   24       -8.761522     -8.761519   1.000000   1.000000
   25       -6.487895     -6.487876   1.000000   1.000000
   26       -6.138592     -6.138576   1.000000   1.000000
   27       -5.338460     -5.338450   1.000000   1.000000
   28       -5.232860     -5.232850   1.000000   1.000000
   29       -4.785035     -4.785025   1.000000   1.000000
   30       -4.581319     -4.581310   1.000000   1.000000
   31       -4.472881     -4.472878   1.000000   1.000000
   32       -4.463213     -4.463211   1.000000   1.000000
   33       -4.099451     -4.099449   1.000000   1.000000
   34       -4.054980     -4.054974   1.000000   1.000000
   35       -3.996055     -3.996052   1.000000   1.000000
   36       -3.814352     -3.814349   1.000000   1.000000
   37       -3.398788     -3.398788   1.000000   1.000000
   38       -3.107011     -3.107014   1.000000   1.000000
   39       -2.591824     -2.591843   1.000000   1.000000
   40       -2.350141     -2.350162   1.000000   1.000000
   41       -2.322072     -2.322094   1.000000   1.000000
   42       -2.075931     -2.075952   1.000000   1.000000
   43       -2.041886     -2.041901   1.000000   1.000000
   44       -1.895312     -1.895336   1.000000   1.000000
   45       -1.787369     -1.787399   1.000000   1.000000
   46       -1.736348     -1.736377   1.000000   1.000000
   47       -1.660494     -1.660519   1.000000   1.000000
   48       -1.465992     -1.466019   1.000000   1.000000
   49       -1.353709     -1.353739   1.000000   1.000000
   50       -1.338919     -1.338944   1.000000   1.000000
   51       -1.323316     -1.323344   1.000000   1.000000
   52       -1.043880     -1.043914   1.000000   1.000000
   53       -0.934134     -0.934174   1.000000   1.000000
   54       -0.747692     -0.747731   1.000000   1.000000
   55       -0.589293     -0.589336   1.000000   1.000000
   56       -0.584892     -0.584936   1.000000   1.000000
   57       -0.461200     -0.461236   1.000000   1.000000
   58       -0.438648     -0.438683   1.000000   1.000000
   59       -0.421893     -0.421930   1.000000   1.000000
   60       -0.296264     -0.296298   1.000000   1.000000
   61       -0.225353     -0.225390   1.000000   1.000000
   62       -0.149947     -0.149993   1.000000   1.000000
   63        0.047828      0.047781   1.000000   1.000000
   64        0.054834      0.054793   1.000000   1.000000
   65        5.319822      5.319822   0.000000   0.000000
   66        7.264389      7.264382   0.000000   0.000000
   67        7.696201      7.696190   0.000000   0.000000
   68        7.883263      7.883286   0.000000   0.000000
   69        8.104942      8.104974   0.000000   0.000000
   70        8.225194      8.225218   0.000000   0.000000
   71        8.282416      8.282440   0.000000   0.000000
   72        8.709540      8.709555   0.000000   0.000000
   73        8.734777      8.734781   0.000000   0.000000
   74        8.980983      8.981006   0.000000   0.000000
   75        9.120467      9.120489   0.000000   0.000000
   76        9.449961      9.450002   0.000000   0.000000
   77        9.659030      9.659038   0.000000   0.000000
   78        9.661255      9.661273   0.000000   0.000000
   79        9.924631      9.924622   0.000000   0.000000
   80       10.004474     10.004509   0.000000   0.000000
   81       10.078103     10.078118   0.000000   0.000000
   82       10.252010     10.252024   0.000000   0.000000
   83       10.473237     10.473267   0.000000   0.000000
   84       10.589582     10.589576   0.000000   0.000000
   85       10.760835     10.760861   0.000000   0.000000
   86       10.823969     10.823985   0.000000   0.000000
   87       11.130688     11.130440   0.000000   0.000000
   88       11.277101     11.275793   0.000000   0.000000
 
  0.1666667E+00  0.2913648E-16  0.8265510E-15  0.1666667E-01
    1      -42.455167    -42.455254   1.000000   1.000000
    2      -42.454715    -42.454802   1.000000   1.000000
    3      -42.363127    -42.363213   1.000000   1.000000
    4      -42.362874    -42.362960   1.000000   1.000000
    5      -42.294953    -42.295043   1.000000   1.000000
    6      -42.284457    -42.284547   1.000000   1.000000
    7      -42.279118    -42.279209   1.000000   1.000000
    8      -42.278823    -42.278913   1.000000   1.000000
    9      -19.975968    -19.975979   1.000000   1.000000
   10      -19.928543    -19.928554   1.000000   1.000000
   11      -18.829989    -18.830007   1.000000   1.000000
   12      -18.808235    -18.808253   1.000000   1.000000
   13      -17.650740    -17.650771   1.000000   1.000000
   14      -17.598169    -17.598201   1.000000   1.000000
   15      -17.108165    -17.108211   1.000000   1.000000
   16      -17.084853    -17.084899   1.000000   1.000000
   17      -16.938237    -16.938277   1.000000   1.000000
   18      -16.926463    -16.926503   1.000000   1.000000
   19      -16.851532    -16.851575   1.000000   1.000000
   20      -16.838164    -16.838207   1.000000   1.000000
   21      -16.786262    -16.786299   1.000000   1.000000
   22      -16.783148    -16.783186   1.000000   1.000000
   23       -8.778794     -8.778792   1.000000   1.000000
   24       -8.760012     -8.760010   1.000000   1.000000
   25       -6.465005     -6.464987   1.000000   1.000000
   26       -6.137935     -6.137920   1.000000   1.000000
   27       -5.325318     -5.325308   1.000000   1.000000
   28       -5.221249     -5.221240   1.000000   1.000000
   29       -4.765112     -4.765102   1.000000   1.000000
   30       -4.573864     -4.573855   1.000000   1.000000
   31       -4.445249     -4.445246   1.000000   1.000000
   32       -4.416227     -4.416224   1.000000   1.000000
   33       -4.076906     -4.076900   1.000000   1.000000
   34       -4.025190     -4.025187   1.000000   1.000000
   35       -3.930774     -3.930771   1.000000   1.000000
   36       -3.795368     -3.795364   1.000000   1.000000
   37       -3.381049     -3.381049   1.000000   1.000000
   38       -3.070044     -3.070048   1.000000   1.000000
   39       -2.558987     -2.559006   1.000000   1.000000
   40       -2.393102     -2.393122   1.000000   1.000000
   41       -2.318897     -2.318919   1.000000   1.000000
   42       -2.150181     -2.150200   1.000000   1.000000
   43       -2.060267     -2.060285   1.000000   1.000000
   44       -1.881489     -1.881512   1.000000   1.000000
   45       -1.825493     -1.825519   1.000000   1.000000
   46       -1.708007     -1.708037   1.000000   1.000000
   47       -1.646595     -1.646618   1.000000   1.000000
   48       -1.512220     -1.512250   1.000000   1.000000
   49       -1.465338     -1.465366   1.000000   1.000000
   50       -1.402005     -1.402032   1.000000   1.000000
   51       -1.364397     -1.364420   1.000000   1.000000
   52       -1.089907     -1.089941   1.000000   1.000000
   53       -0.904920     -0.904960   1.000000   1.000000
   54       -0.768751     -0.768791   1.000000   1.000000
   55       -0.616466     -0.616510   1.000000   1.000000
   56       -0.595433     -0.595475   1.000000   1.000000
   57       -0.495262     -0.495300   1.000000   1.000000
   58       -0.479895     -0.479931   1.000000   1.000000
   59       -0.373860     -0.373899   1.000000   1.000000
   60       -0.302810     -0.302845   1.000000   1.000000
   61       -0.208423     -0.208460   1.000000   1.000000
   62       -0.143272     -0.143318   1.000000   1.000000
   63        0.040007      0.039962   1.000000   1.000000
   64        0.067014      0.066971   1.000000   1.000000
   65        5.579555      5.579553   0.000000   0.000000
   66        7.225514      7.225507   0.000000   0.000000
   67        7.715538      7.715534   0.000000   0.000000
   68        7.844549      7.844560   0.000000   0.000000
   69        8.060950      8.060981   0.000000   0.000000
   70        8.174914      8.174942   0.000000   0.000000
   71        8.432907      8.432924   0.000000   0.000000
   72        8.655252      8.655257   0.000000   0.000000
   73        8.753992      8.754007   0.000000   0.000000
   74        9.033182      9.033205   0.000000   0.000000
   75        9.097509      9.097530   0.000000   0.000000
   76        9.400268      9.400300   0.000000   0.000000
   77        9.482270      9.482293   0.000000   0.000000
   78        9.634805      9.634813   0.000000   0.000000
   79        9.739845      9.739856   0.000000   0.000000
   80        9.893061      9.893059   0.000000   0.000000
   81        9.918766      9.918781   0.000000   0.000000
   82       10.090933     10.090953   0.000000   0.000000
   83       10.235837     10.235845   0.000000   0.000000
   84       10.500260     10.500281   0.000000   0.000000
   85       10.800518     10.800545   0.000000   0.000000
   86       10.949798     10.949842   0.000000   0.000000
   87       11.005726     11.005737   0.000000   0.000000
   88       11.480500     11.418185   0.000000   0.000000
 
  0.3333333E+00  0.5014386E-16  0.1660898E-14  0.1666667E-01
    1      -42.455145    -42.455232   1.000000   1.000000
    2      -42.454703    -42.454790   1.000000   1.000000
    3      -42.363064    -42.363150   1.000000   1.000000
    4      -42.362821    -42.362907   1.000000   1.000000
    5      -42.294781    -42.294871   1.000000   1.000000
    6      -42.284848    -42.284938   1.000000   1.000000
    7      -42.279167    -42.279257   1.000000   1.000000
    8      -42.278630    -42.278720   1.000000   1.000000
    9      -19.960408    -19.960420   1.000000   1.000000
   10      -19.932139    -19.932150   1.000000   1.000000
   11      -18.826997    -18.827015   1.000000   1.000000
   12      -18.810750    -18.810767   1.000000   1.000000
   13      -17.632645    -17.632676   1.000000   1.000000
   14      -17.602329    -17.602361   1.000000   1.000000
   15      -17.101898    -17.101943   1.000000   1.000000
   16      -17.083694    -17.083741   1.000000   1.000000
   17      -16.955580    -16.955619   1.000000   1.000000
   18      -16.941772    -16.941812   1.000000   1.000000
   19      -16.854772    -16.854815   1.000000   1.000000
   20      -16.845259    -16.845303   1.000000   1.000000
   21      -16.797599    -16.797636   1.000000   1.000000
   22      -16.791123    -16.791160   1.000000   1.000000
   23       -8.797492     -8.797489   1.000000   1.000000
   24       -8.770334     -8.770331   1.000000   1.000000
   25       -6.418565     -6.418549   1.000000   1.000000
   26       -6.136331     -6.136316   1.000000   1.000000
   27       -5.292902     -5.292894   1.000000   1.000000
   28       -5.208354     -5.208345   1.000000   1.000000
   29       -4.723389     -4.723379   1.000000   1.000000
   30       -4.563407     -4.563397   1.000000   1.000000
   31       -4.357519     -4.357515   1.000000   1.000000
   32       -4.329355     -4.329352   1.000000   1.000000
   33       -4.114145     -4.114138   1.000000   1.000000
   34       -3.866375     -3.866371   1.000000   1.000000
   35       -3.819546     -3.819541   1.000000   1.000000
   36       -3.722973     -3.722969   1.000000   1.000000
   37       -3.337809     -3.337810   1.000000   1.000000
   38       -3.002059     -3.002062   1.000000   1.000000
   39       -2.540938     -2.540958   1.000000   1.000000
   40       -2.399425     -2.399444   1.000000   1.000000
   41       -2.333104     -2.333125   1.000000   1.000000
   42       -2.235708     -2.235726   1.000000   1.000000
   43       -2.090348     -2.090369   1.000000   1.000000
   44       -1.954086     -1.954109   1.000000   1.000000
   45       -1.863218     -1.863242   1.000000   1.000000
   46       -1.818171     -1.818197   1.000000   1.000000
   47       -1.748871     -1.748901   1.000000   1.000000
   48       -1.602540     -1.602566   1.000000   1.000000
   49       -1.513637     -1.513658   1.000000   1.000000
   50       -1.473297     -1.473320   1.000000   1.000000
   51       -1.419301     -1.419329   1.000000   1.000000
   52       -1.189337     -1.189371   1.000000   1.000000
   53       -0.875931     -0.875971   1.000000   1.000000
   54       -0.797049     -0.797089   1.000000   1.000000
   55       -0.689686     -0.689728   1.000000   1.000000
   56       -0.621618     -0.621660   1.000000   1.000000
   57       -0.539019     -0.539058   1.000000   1.000000
   58       -0.511227     -0.511265   1.000000   1.000000
   59       -0.364269     -0.364309   1.000000   1.000000
   60       -0.297110     -0.297149   1.000000   1.000000
   61       -0.164889     -0.164930   1.000000   1.000000
   62       -0.129876     -0.129921   1.000000   1.000000
   63        0.044261      0.044217   1.000000   1.000000
   64        0.075802      0.075759   1.000000   1.000000
   65        6.209448      6.209443   0.000000   0.000000
   66        7.192879      7.192874   0.000000   0.000000
   67        7.720045      7.720049   0.000000   0.000000
   68        7.819833      7.819835   0.000000   0.000000
   69        8.055695      8.055720   0.000000   0.000000
   70        8.194018      8.194042   0.000000   0.000000
   71        8.436065      8.436069   0.000000   0.000000
   72        8.553970      8.553977   0.000000   0.000000
   73        8.739301      8.739320   0.000000   0.000000
   74        8.811457      8.811468   0.000000   0.000000
   75        8.987235      8.987253   0.000000   0.000000
   76        9.067577      9.067600   0.000000   0.000000
   77        9.261526      9.261534   0.000000   0.000000
   78        9.572910      9.572936   0.000000   0.000000
   79        9.632432      9.632444   0.000000   0.000000
   80        9.700609      9.700627   0.000000   0.000000
   81        9.760412      9.760429   0.000000   0.000000
   82        9.880192      9.880193   0.000000   0.000000
   83       10.219246     10.219263   0.000000   0.000000
   84       10.373191     10.373209   0.000000   0.000000
   85       10.800313     10.800339   0.000000   0.000000
   86       10.925590     10.925618   0.000000   0.000000
   87       11.313738     11.312604   0.000000   0.000000
   88       11.486419     11.500005   0.000000   0.000000
 
  0.5000000E+00  0.6090493E-16  0.2454729E-14  0.8333333E-02
    1      -42.455140    -42.455227   1.000000   1.000000
    2      -42.454715    -42.454802   1.000000   1.000000
    3      -42.363038    -42.363124   1.000000   1.000000
    4      -42.362808    -42.362893   1.000000   1.000000
    5      -42.294696    -42.294786   1.000000   1.000000
    6      -42.285059    -42.285149   1.000000   1.000000
    7      -42.279195    -42.279285   1.000000   1.000000
    8      -42.278551    -42.278641   1.000000   1.000000
    9      -19.947525    -19.947536   1.000000   1.000000
   10      -19.939033    -19.939044   1.000000   1.000000
   11      -18.825393    -18.825411   1.000000   1.000000
   12      -18.812199    -18.812216   1.000000   1.000000
   13      -17.616369    -17.616401   1.000000   1.000000
   14      -17.611525    -17.611556   1.000000   1.000000
   15      -17.098262    -17.098308   1.000000   1.000000
   16      -17.083189    -17.083235   1.000000   1.000000
   17      -16.964511    -16.964550   1.000000   1.000000
   18      -16.949911    -16.949951   1.000000   1.000000
   19      -16.854833    -16.854877   1.000000   1.000000
   20      -16.850667    -16.850710   1.000000   1.000000
   21      -16.803853    -16.803890   1.000000   1.000000
   22      -16.794321    -16.794358   1.000000   1.000000
   23       -8.805228     -8.805225   1.000000   1.000000
   24       -8.777209     -8.777206   1.000000   1.000000
   25       -6.394672     -6.394657   1.000000   1.000000
   26       -6.136081     -6.136066   1.000000   1.000000
   27       -5.272530     -5.272522   1.000000   1.000000
   28       -5.207653     -5.207644   1.000000   1.000000
   29       -4.701792     -4.701782   1.000000   1.000000
   30       -4.559304     -4.559294   1.000000   1.000000
   31       -4.293168     -4.293163   1.000000   1.000000
   32       -4.286443     -4.286441   1.000000   1.000000
   33       -4.140379     -4.140371   1.000000   1.000000
   34       -3.812956     -3.812951   1.000000   1.000000
   35       -3.750887     -3.750882   1.000000   1.000000
   36       -3.651333     -3.651329   1.000000   1.000000
   37       -3.310012     -3.310014   1.000000   1.000000
   38       -2.973912     -2.973916   1.000000   1.000000
   39       -2.559783     -2.559802   1.000000   1.000000
   40       -2.363950     -2.363970   1.000000   1.000000
   41       -2.302209     -2.302230   1.000000   1.000000
   42       -2.301104     -2.301121   1.000000   1.000000
   43       -2.136340     -2.136363   1.000000   1.000000
   44       -1.999846     -1.999869   1.000000   1.000000
   45       -1.939307     -1.939333   1.000000   1.000000
   46       -1.904633     -1.904654   1.000000   1.000000
   47       -1.789422     -1.789451   1.000000   1.000000
   48       -1.642610     -1.642637   1.000000   1.000000
   49       -1.518777     -1.518795   1.000000   1.000000
   50       -1.516495     -1.516510   1.000000   1.000000
   51       -1.352386     -1.352419   1.000000   1.000000
   52       -1.283852     -1.283885   1.000000   1.000000
   53       -0.883894     -0.883935   1.000000   1.000000
   54       -0.793800     -0.793842   1.000000   1.000000
   55       -0.727634     -0.727676   1.000000   1.000000
   56       -0.639549     -0.639591   1.000000   1.000000
   57       -0.543585     -0.543624   1.000000   1.000000
   58       -0.534126     -0.534164   1.000000   1.000000
   59       -0.371176     -0.371215   1.000000   1.000000
   60       -0.282027     -0.282068   1.000000   1.000000
   61       -0.141897     -0.141940   1.000000   1.000000
   62       -0.132755     -0.132802   1.000000   1.000000
   63        0.065595      0.065552   1.000000   1.000000
   64        0.066535      0.066493   1.000000   1.000000
   65        6.740869      6.740860   0.000000   0.000000
   66        7.064833      7.064831   0.000000   0.000000
   67        7.694053      7.694049   0.000000   0.000000
   68        7.908513      7.908525   0.000000   0.000000
   69        8.077867      8.077878   0.000000   0.000000
   70        8.208671      8.208686   0.000000   0.000000
   71        8.328578      8.328587   0.000000   0.000000
   72        8.383825      8.383831   0.000000   0.000000
   73        8.518389      8.518414   0.000000   0.000000
   74        8.702454      8.702452   0.000000   0.000000
   75        8.872702      8.872717   0.000000   0.000000
   76        8.942232      8.942262   0.000000   0.000000
   77        9.347272      9.347280   0.000000   0.000000
   78        9.495034      9.495052   0.000000   0.000000
   79        9.591560      9.591584   0.000000   0.000000
   80        9.679126      9.679150   0.000000   0.000000
   81        9.692322      9.692337   0.000000   0.000000
   82        9.903841      9.903839   0.000000   0.000000
   83       10.224758     10.224781   0.000000   0.000000
   84       10.261191     10.261205   0.000000   0.000000
   85       10.805577     10.805605   0.000000   0.000000
   86       11.026048     11.026184   0.000000   0.000000
   87       11.510653     11.516047   0.000000   0.000000
   88       11.522358     11.524335   0.000000   0.000000
 
  0.2794996E-20  0.2000000E+00 -0.1406628E-14  0.1666667E-01
    1      -42.455113    -42.455200   1.000000   1.000000
    2      -42.454750    -42.454838   1.000000   1.000000
    3      -42.363159    -42.363245   1.000000   1.000000
    4      -42.362866    -42.362952   1.000000   1.000000
    5      -42.294957    -42.295047   1.000000   1.000000
    6      -42.284430    -42.284520   1.000000   1.000000
    7      -42.279083    -42.279173   1.000000   1.000000
    8      -42.278781    -42.278871   1.000000   1.000000
    9      -19.974459    -19.974470   1.000000   1.000000
   10      -19.931291    -19.931303   1.000000   1.000000
   11      -18.833526    -18.833544   1.000000   1.000000
   12      -18.819864    -18.819882   1.000000   1.000000
   13      -17.643372    -17.643404   1.000000   1.000000
   14      -17.603973    -17.604004   1.000000   1.000000
   15      -17.117753    -17.117798   1.000000   1.000000
   16      -17.072498    -17.072545   1.000000   1.000000
   17      -16.929963    -16.930003   1.000000   1.000000
   18      -16.921316    -16.921356   1.000000   1.000000
   19      -16.848016    -16.848059   1.000000   1.000000
   20      -16.835916    -16.835960   1.000000   1.000000
   21      -16.781669    -16.781706   1.000000   1.000000
   22      -16.776948    -16.776985   1.000000   1.000000
   23       -8.788453     -8.788450   1.000000   1.000000
   24       -8.763046     -8.763043   1.000000   1.000000
   25       -6.476365     -6.476347   1.000000   1.000000
   26       -6.116502     -6.116487   1.000000   1.000000
   27       -5.342828     -5.342817   1.000000   1.000000
   28       -5.223094     -5.223084   1.000000   1.000000
   29       -4.766232     -4.766222   1.000000   1.000000
   30       -4.553821     -4.553813   1.000000   1.000000
   31       -4.487787     -4.487784   1.000000   1.000000
   32       -4.474337     -4.474334   1.000000   1.000000
   33       -4.119839     -4.119833   1.000000   1.000000
   34       -4.086649     -4.086647   1.000000   1.000000
   35       -3.981407     -3.981404   1.000000   1.000000
   36       -3.810792     -3.810787   1.000000   1.000000
   37       -3.343003     -3.343004   1.000000   1.000000
   38       -3.141813     -3.141816   1.000000   1.000000
   39       -2.484843     -2.484863   1.000000   1.000000
   40       -2.357822     -2.357843   1.000000   1.000000
   41       -2.325565     -2.325588   1.000000   1.000000
   42       -2.220026     -2.220046   1.000000   1.000000
   43       -2.108437     -2.108452   1.000000   1.000000
   44       -1.873670     -1.873696   1.000000   1.000000
   45       -1.781817     -1.781842   1.000000   1.000000
   46       -1.659014     -1.659043   1.000000   1.000000
   47       -1.534020     -1.534044   1.000000   1.000000
   48       -1.505934     -1.505966   1.000000   1.000000
   49       -1.359391     -1.359418   1.000000   1.000000
   50       -1.353841     -1.353871   1.000000   1.000000
   51       -1.326757     -1.326784   1.000000   1.000000
   52       -1.124928     -1.124961   1.000000   1.000000
   53       -0.954772     -0.954811   1.000000   1.000000
   54       -0.738144     -0.738186   1.000000   1.000000
   55       -0.623294     -0.623336   1.000000   1.000000
   56       -0.583338     -0.583379   1.000000   1.000000
   57       -0.472921     -0.472958   1.000000   1.000000
   58       -0.440814     -0.440850   1.000000   1.000000
   59       -0.391362     -0.391398   1.000000   1.000000
   60       -0.323518     -0.323553   1.000000   1.000000
   61       -0.202034     -0.202071   1.000000   1.000000
   62       -0.138427     -0.138471   1.000000   1.000000
   63        0.027107      0.027064   1.000000   1.000000
   64        0.055655      0.055610   1.000000   1.000000
   65        5.553461      5.553459   0.000000   0.000000
   66        7.126805      7.126794   0.000000   0.000000
   67        7.613154      7.613156   0.000000   0.000000
   68        7.841510      7.841512   0.000000   0.000000
   69        8.050764      8.050797   0.000000   0.000000
   70        8.124465      8.124489   0.000000   0.000000
   71        8.393883      8.393907   0.000000   0.000000
   72        8.620868      8.620882   0.000000   0.000000
   73        8.883951      8.883969   0.000000   0.000000
   74        8.997129      8.997145   0.000000   0.000000
   75        9.088763      9.088789   0.000000   0.000000
   76        9.347352      9.347381   0.000000   0.000000
   77        9.549909      9.549927   0.000000   0.000000
   78        9.761088      9.761114   0.000000   0.000000
   79        9.881080      9.881082   0.000000   0.000000
   80       10.074207     10.074222   0.000000   0.000000
   81       10.239365     10.239379   0.000000   0.000000
   82       10.276201     10.276212   0.000000   0.000000
   83       10.373400     10.373435   0.000000   0.000000
   84       10.694141     10.694150   0.000000   0.000000
   85       10.817903     10.817916   0.000000   0.000000
   86       10.900623     10.900697   0.000000   0.000000
   87       11.027970     11.027979   0.000000   0.000000
   88       11.421706     11.394726   0.000000   0.000000
 
  0.1666667E+00  0.2000000E+00 -0.5766072E-15  0.1666667E-01
    1      -42.455123    -42.455211   1.000000   1.000000
    2      -42.454752    -42.454839   1.000000   1.000000
    3      -42.363134    -42.363220   1.000000   1.000000
    4      -42.362856    -42.362942   1.000000   1.000000
    5      -42.294828    -42.294918   1.000000   1.000000
    6      -42.284788    -42.284878   1.000000   1.000000
    7      -42.279130    -42.279220   1.000000   1.000000
    8      -42.278597    -42.278688   1.000000   1.000000
    9      -19.963740    -19.963751   1.000000   1.000000
   10      -19.933856    -19.933868   1.000000   1.000000
   11      -18.846977    -18.846995   1.000000   1.000000
   12      -18.812685    -18.812703   1.000000   1.000000
   13      -17.628498    -17.628529   1.000000   1.000000
   14      -17.609209    -17.609240   1.000000   1.000000
   15      -17.114311    -17.114356   1.000000   1.000000
   16      -17.069450    -17.069497   1.000000   1.000000
   17      -16.942665    -16.942705   1.000000   1.000000
   18      -16.925203    -16.925243   1.000000   1.000000
   19      -16.847542    -16.847586   1.000000   1.000000
   20      -16.841265    -16.841309   1.000000   1.000000
   21      -16.787285    -16.787322   1.000000   1.000000
   22      -16.781125    -16.781163   1.000000   1.000000
   23       -8.810613     -8.810610   1.000000   1.000000
   24       -8.769012     -8.769010   1.000000   1.000000
   25       -6.452195     -6.452177   1.000000   1.000000
   26       -6.097409     -6.097393   1.000000   1.000000
   27       -5.329426     -5.329417   1.000000   1.000000
   28       -5.208624     -5.208615   1.000000   1.000000
   29       -4.743356     -4.743346   1.000000   1.000000
   30       -4.538043     -4.538035   1.000000   1.000000
   31       -4.468100     -4.468096   1.000000   1.000000
   32       -4.445665     -4.445663   1.000000   1.000000
   33       -4.145427     -4.145420   1.000000   1.000000
   34       -3.998884     -3.998881   1.000000   1.000000
   35       -3.904385     -3.904382   1.000000   1.000000
   36       -3.811972     -3.811967   1.000000   1.000000
   37       -3.295488     -3.295491   1.000000   1.000000
   38       -3.101665     -3.101668   1.000000   1.000000
   39       -2.460177     -2.460198   1.000000   1.000000
   40       -2.390088     -2.390108   1.000000   1.000000
   41       -2.292210     -2.292231   1.000000   1.000000
   42       -2.252711     -2.252731   1.000000   1.000000
   43       -2.160535     -2.160551   1.000000   1.000000
   44       -1.907769     -1.907794   1.000000   1.000000
   45       -1.768222     -1.768243   1.000000   1.000000
   46       -1.689604     -1.689633   1.000000   1.000000
   47       -1.575234     -1.575264   1.000000   1.000000
   48       -1.523722     -1.523749   1.000000   1.000000
   49       -1.429477     -1.429508   1.000000   1.000000
   50       -1.421516     -1.421540   1.000000   1.000000
   51       -1.362480     -1.362504   1.000000   1.000000
   52       -1.211150     -1.211183   1.000000   1.000000
   53       -0.919247     -0.919286   1.000000   1.000000
   54       -0.758967     -0.759008   1.000000   1.000000
   55       -0.671148     -0.671190   1.000000   1.000000
   56       -0.589477     -0.589516   1.000000   1.000000
   57       -0.502736     -0.502773   1.000000   1.000000
   58       -0.476892     -0.476931   1.000000   1.000000
   59       -0.366330     -0.366368   1.000000   1.000000
   60       -0.303562     -0.303598   1.000000   1.000000
   61       -0.168045     -0.168084   1.000000   1.000000
   62       -0.155537     -0.155581   1.000000   1.000000
   63        0.013493      0.013450   1.000000   1.000000
   64        0.069782      0.069738   1.000000   1.000000
   65        5.950848      5.950843   0.000000   0.000000
   66        7.058725      7.058715   0.000000   0.000000
   67        7.419818      7.419815   0.000000   0.000000