 running on    8 total cores
 distrk:  each k-point on    8 cores,    1 groups
 distr:  one band on    1 cores,    8 groups
 using from now: INCAR     
 vasp.6.1.2 22Jul20 (build Mar 20 2021 11:25:07) complex                        
  
 POSCAR found type information on POSCAR LiO 
 POSCAR found :  2 types and       9 ions
 scaLAPACK will be used
 -----------------------------------------------------------------------------
|                                                                             |
|           W    W    AA    RRRRR   N    N  II  N    N   GGGG   !!!           |
|           W    W   A  A   R    R  NN   N  II  NN   N  G    G  !!!           |
|           W    W  A    A  R    R  N N  N  II  N N  N  G       !!!           |
|           W WW W  AAAAAA  RRRRR   N  N N  II  N  N N  G  GGG   !            |
|           WW  WW  A    A  R   R   N   NN  II  N   NN  G    G                |
|           W    W  A    A  R    R  N    N  II  N    N   GGGG   !!!           |
|                                                                             |
|     The value NCORE = 6 specified in the INCAR file was overwritten,        |
|     because it was not compatible with the 8 processes available:           |
|     NCORE = 1                                                               |
|     was used instead, please check that this makes sense for your           |
|     machine.                                                                |
|                                                                             |
 -----------------------------------------------------------------------------

 -----------------------------------------------------------------------------
|                                                                             |
|           W    W    AA    RRRRR   N    N  II  N    N   GGGG   !!!           |
|           W    W   A  A   R    R  NN   N  II  NN   N  G    G  !!!           |
|           W    W  A    A  R    R  N N  N  II  N N  N  G       !!!           |
|           W WW W  AAAAAA  RRRRR   N  N N  II  N  N N  G  GGG   !            |
|           WW  WW  A    A  R   R   N   NN  II  N   NN  G    G                |
|           W    W  A    A  R    R  N    N  II  N    N   GGGG   !!!           |
|                                                                             |
|     For optimal performance we recommend to set                             |
|       NCORE = 4 - approx SQRT(number of cores).                             |
|     NCORE specifies how many cores store one orbital (NPAR=cpu/NCORE).      |
|     This setting can greatly improve the performance of VASP for DFT.       |
|     The default, NCORE=1 might be grossly inefficient on modern             |
|     multi-core architectures or massively parallel machines. Do your        |
|     own testing!!!!                                                         |
|     Unfortunately you need to use the default for GW and RPA                |
|     calculations (for HF NCORE is supported but not extensively tested      |
|     yet).                                                                   |
|                                                                             |
 -----------------------------------------------------------------------------

 LDA part: xc-table for Pade appr. of Perdew
 generate k-points for:    8    7    7
 POSCAR, INCAR and KPOINTS ok, starting setup
 FFT: planning ...
 WAVECAR not read
 entering main loop
       N       E                     dE             d eps       ncg     rms          rms(c)
DAV:   1     0.331243902244E+03    0.33124E+03   -0.26965E+04 18568   0.123E+03
DAV:   2    -0.195106801315E+02   -0.35075E+03   -0.33558E+03 23040   0.306E+02
DAV:   3    -0.434798154085E+02   -0.23969E+02   -0.23608E+02 27312   0.769E+01
DAV:   4    -0.442147434830E+02   -0.73493E+00   -0.72844E+00 29168   0.994E+00
DAV:   5    -0.442504549803E+02   -0.35711E-01   -0.35710E-01 24248   0.132E+00    0.143E+01
RMM:   6    -0.448066499326E+02   -0.55619E+00   -0.24347E+00 21304   0.708E+00    0.110E+01
RMM:   7    -0.441587386531E+02    0.64791E+00   -0.91395E-01 20088   0.445E+00    0.570E+00
RMM:   8    -0.439170023746E+02    0.24174E+00   -0.36539E-01 20720   0.314E+00    0.320E+00
RMM:   9    -0.439817221311E+02   -0.64720E-01   -0.13685E-01 22780   0.188E+00    0.351E+00
RMM:  10    -0.439042115269E+02    0.77511E-01   -0.52666E-02 23167   0.114E+00    0.850E-01
RMM:  11    -0.439057941173E+02   -0.15826E-02   -0.98001E-03 24366   0.550E-01    0.429E-01
RMM:  12    -0.439059940547E+02   -0.19994E-03   -0.30439E-03 24555   0.325E-01    0.150E-01
RMM:  13    -0.439064218606E+02   -0.42781E-03   -0.84035E-04 25969   0.172E-01    0.595E-02
RMM:  14    -0.439065560761E+02   -0.13422E-03   -0.29878E-04 28299   0.859E-02    0.438E-02
RMM:  15    -0.439066303644E+02   -0.74288E-04   -0.13754E-04 27965   0.605E-02    0.401E-02
WARNING in EDDRMM: call to ZHEGV failed, returncode =   8  4      5
RMM:  16    -0.439066770893E+02   -0.46725E-04   -0.71329E-05 26618   0.429E-02    0.407E-02
RMM:  17    -0.439066996069E+02   -0.22518E-04   -0.32459E-05 20765   0.260E-02    0.420E-02
WARNING in EDDRMM: call to ZHEGV failed, returncode =   6  3      5
RMM:  18    -0.439066397930E+02    0.59814E-04   -0.47018E-05 25684   0.398E-02    0.415E-02
RMM:  19    -0.439066012025E+02    0.38590E-04   -0.59804E-05 25229   0.410E-02    0.357E-02
RMM:  20    -0.439065894042E+02    0.11798E-04   -0.12965E-04 26977   0.586E-02    0.286E-02
RMM:  21    -0.439066365966E+02   -0.47192E-04   -0.12482E-04 26369   0.612E-02    0.195E-02
RMM:  22    -0.439066670700E+02   -0.30473E-04   -0.17745E-04 27018   0.715E-02    0.126E-02
RMM:  23    -0.439066845270E+02   -0.17457E-04   -0.43222E-05 21999   0.372E-02    0.646E-03
RMM:  24    -0.439066901488E+02   -0.56218E-05   -0.92017E-06 14199   0.180E-02
   1 F= -.43906690E+02 E0= -.43906690E+02  d E =0.000000E+00  mag=     0.0004
 -----------------------------------------------------------------------------
|                                                                             |
|           W    W    AA    RRRRR   N    N  II  N    N   GGGG   !!!           |
|           W    W   A  A   R    R  NN   N  II  NN   N  G    G  !!!           |
|           W    W  A    A  R    R  N N  N  II  N N  N  G       !!!           |
|           W WW W  AAAAAA  RRRRR   N  N N  II  N  N N  G  GGG   !            |
|           WW  WW  A    A  R   R   N   NN  II  N   NN  G    G                |
|           W    W  A    A  R    R  N    N  II  N    N   GGGG   !!!           |
|                                                                             |
|     Tetrahedron method does not include variations of the Fermi             |
|     occupations, so forces and stress will be inaccurate. We suggest        |
|     using a different smearing scheme ISMEAR = 1 or 2 for metals in         |
|     relaxations.                                                            |
|                                                                             |
 -----------------------------------------------------------------------------

