 running on   24 total cores
 distrk:  each k-point on   24 cores,    1 groups
 distr:  one band on    6 cores,    4 groups
 using from now: INCAR     
 vasp.6.1.2 22Jul20 (build Mar 31 2021 18:09:49) complex                        
  
 POSCAR found type information on POSCAR LiO 
 POSCAR found :  2 types and       8 ions
 scaLAPACK will be used
 -----------------------------------------------------------------------------
|                                                                             |
|               ----> ADVICE to this user running VASP <----                  |
|                                                                             |
|     You have a (more or less) 'small supercell' and for smaller cells       |
|     it is recommended to use the reciprocal-space projection scheme!        |
|     The real-space optimization is not efficient for small cells and it     |
|     is also less accurate ...                                               |
|     Therefore, set LREAL=.FALSE. in the INCAR file.                         |
|                                                                             |
 -----------------------------------------------------------------------------

 LDA part: xc-table for Pade appr. of Perdew
 generate k-points for:   12   12    4
 POSCAR, INCAR and KPOINTS ok, starting setup
 FFT: planning ...
 WAVECAR not read
 entering main loop
       N       E                     dE             d eps       ncg     rms          rms(c)
DAV:   1     0.251558783609E+03    0.25156E+03   -0.17312E+04 18368   0.137E+03
DAV:   2    -0.148422520331E+02   -0.26640E+03   -0.25628E+03 21888   0.347E+02
DAV:   3    -0.376478084000E+02   -0.22806E+02   -0.22615E+02 30004   0.844E+01
DAV:   4    -0.392792150834E+02   -0.16314E+01   -0.16254E+01 27240   0.209E+01
DAV:   5    -0.393240513281E+02   -0.44836E-01   -0.44833E-01 25976   0.305E+00    0.178E+01
RMM:   6    -0.382133806974E+02    0.11107E+01   -0.44901E+00 20422   0.109E+01    0.783E+00
RMM:   7    -0.388218287151E+02   -0.60845E+00   -0.67799E-01 23029   0.506E+00    0.389E+00
RMM:   8    -0.389000661994E+02   -0.78237E-01   -0.30917E-01 26921   0.315E+00    0.156E+00
RMM:   9    -0.389109421221E+02   -0.10876E-01   -0.10753E-01 28610   0.205E+00    0.384E-01
RMM:  10    -0.389205321725E+02   -0.95901E-02   -0.54596E-02 32106   0.115E+00    0.187E-01
RMM:  11    -0.389243727202E+02   -0.38405E-02   -0.20992E-02 32933   0.665E-01    0.126E-01
RMM:  12    -0.389256936934E+02   -0.13210E-02   -0.88442E-03 34152   0.397E-01    0.919E-02
RMM:  13    -0.389261044698E+02   -0.41078E-03   -0.32257E-03 32543   0.272E-01    0.388E-02
RMM:  14    -0.389263685934E+02   -0.26412E-03   -0.16561E-03 33180   0.190E-01    0.967E-03
RMM:  15    -0.389264601847E+02   -0.91591E-04   -0.76013E-04 31429   0.111E-01    0.929E-03
RMM:  16    -0.389264948278E+02   -0.34643E-04   -0.31506E-04 30128   0.731E-02    0.629E-03
RMM:  17    -0.389265080403E+02   -0.13213E-04   -0.12451E-04 28156   0.507E-02    0.365E-03
RMM:  18    -0.389265123478E+02   -0.43075E-05   -0.45567E-05 23892   0.368E-02
   1 F= -.38926512E+02 E0= -.38926512E+02  d E =0.000000E+00  mag=    -0.0000
