   26   26    1    2
  0.1031942E+02  0.4734488E-09  0.7215480E-09  0.8662006E-09  0.5000000E-15
  1.000000000000000E-004
  CAR 
 unknown system                          
    128     71     86
 
  0.0000000E+00  0.0000000E+00  0.0000000E+00  0.7142857E-02
    1      -40.938956    -40.939007   1.000000   1.000000
    2      -40.934193    -40.934254   1.000000   1.000000
    3      -40.932866    -40.932905   1.000000   1.000000
    4      -40.929482    -40.929530   1.000000   1.000000
    5      -40.852536    -40.852566   1.000000   1.000000
    6      -40.852261    -40.852292   1.000000   1.000000
    7      -40.829893    -40.829906   1.000000   1.000000
    8      -40.802579    -40.802591   1.000000   1.000000
    9      -19.890832    -19.890874   1.000000   1.000000
   10      -19.823128    -19.823169   1.000000   1.000000
   11      -19.137060    -19.137100   1.000000   1.000000
   12      -19.112893    -19.112932   1.000000   1.000000
   13      -17.243987    -17.244022   1.000000   1.000000
   14      -17.227250    -17.227285   1.000000   1.000000
   15      -16.590893    -16.590932   1.000000   1.000000
   16      -16.582577    -16.582615   1.000000   1.000000
   17      -16.560628    -16.560665   1.000000   1.000000
   18      -16.512266    -16.512304   1.000000   1.000000
   19      -16.463780    -16.463818   1.000000   1.000000
   20      -16.409481    -16.409519   1.000000   1.000000
   21      -16.200234    -16.200273   1.000000   1.000000
   22      -16.180677    -16.180715   1.000000   1.000000
   23       -7.717159     -7.717204   1.000000   1.000000
   24       -7.668307     -7.668351   1.000000   1.000000
   25       -5.323058     -5.323123   1.000000   1.000000
   26       -4.847990     -4.848048   1.000000   1.000000
   27       -4.534637     -4.534700   1.000000   1.000000
   28       -4.398397     -4.398463   1.000000   1.000000
   29       -4.151276     -4.151345   1.000000   1.000000
   30       -3.957681     -3.957751   1.000000   1.000000
   31       -3.756522     -3.756589   1.000000   1.000000
   32       -3.735327     -3.735395   1.000000   1.000000
   33       -3.529507     -3.529573   1.000000   1.000000
   34       -3.480142     -3.480209   1.000000   1.000000
   35       -3.315950     -3.316014   1.000000   1.000000
   36       -3.253036     -3.253100   1.000000   1.000000
   37       -2.836881     -2.836949   1.000000   1.000000
   38       -2.648604     -2.648669   1.000000   1.000000
   39       -2.109662     -2.109730   1.000000   1.000000
   40       -1.774645     -1.774709   1.000000   1.000000
   41       -1.704809     -1.704874   1.000000   1.000000
   42       -1.648264     -1.648331   1.000000   1.000000
   43       -1.568186     -1.568248   1.000000   1.000000
   44       -1.276932     -1.276991   1.000000   1.000000
   45       -1.215482     -1.215543   1.000000   1.000000
   46       -1.076309     -1.076369   1.000000   1.000000
   47       -0.945808     -0.945867   1.000000   1.000000
   48       -0.882442     -0.882498   1.000000   1.000000
   49       -0.689282     -0.689334   1.000000   1.000000
   50       -0.636307     -0.636365   1.000000   1.000000
   51       -0.448968     -0.449023   1.000000   1.000000
   52       -0.393092     -0.393144   1.000000   1.000000
   53       -0.181071     -0.181128   1.000000   1.000000
   54        0.150276      0.150222   1.000000   1.000000
   55        0.152172      0.152118   1.000000   1.000000
   56        0.161461      0.161407   1.000000   1.000000
   57        0.433704      0.433654   1.000000   1.000000
   58        0.570288      0.570229   1.000000   1.000000
   59        0.593970      0.593916   1.000000   1.000000
   60        0.643217      0.643163   1.000000   1.000000
   61        0.713209      0.713152   1.000000   1.000000
   62        0.818808      0.818757   1.000000   1.000000
   63        0.939132      0.939080   1.000000   1.000000
   64        0.956362      0.956314   1.000000   1.000000
   65        7.240088      7.239950   0.000001   0.000003
   66        9.629354      9.629241   0.000000   0.000000
   67        9.720735      9.720626   0.000000   0.000000
   68        9.867084      9.866993   0.000000   0.000000
   69        9.979458      9.979336   0.000000   0.000000
   70       10.094458     10.094353   0.000000   0.000000
   71       10.269742     10.269614   0.000000   0.000000
   72       10.785479     10.785338   0.000000   0.000000
   73       10.895269     10.895127   0.000000   0.000000
   74       10.979978     10.979884   0.000000   0.000000
   75       11.215915     11.215777   0.000000   0.000000
   76       11.509358     11.509222   0.000000   0.000000
   77       11.515921     11.515812   0.000000   0.000000
   78       11.947714     11.947579   0.000000   0.000000
   79       11.953062     11.952946   0.000000   0.000000
   80       12.367672     12.367558   0.000000   0.000000
   81       12.439576     12.439435   0.000000   0.000000
   82       12.558802     12.558685   0.000000   0.000000
   83       12.877666     12.877534   0.000000   0.000000
   84       12.894234     12.894106   0.000000   0.000000
   85       13.144333     13.144199   0.000000   0.000000
   86       13.474143     13.450176   0.000000   0.000000
 
  0.1428571E+00 -0.1938454E-16 -0.4760715E-14  0.1428571E-01
    1      -40.938624    -40.938675   1.000000   1.000000
    2      -40.934084    -40.934146   1.000000   1.000000
    3      -40.932829    -40.932866   1.000000   1.000000
    4      -40.929575    -40.929623   1.000000   1.000000
    5      -40.852681    -40.852711   1.000000   1.000000
    6      -40.852427    -40.852457   1.000000   1.000000
    7      -40.829871    -40.829883   1.000000   1.000000
    8      -40.802674    -40.802686   1.000000   1.000000
    9      -19.881121    -19.881163   1.000000   1.000000
   10      -19.820019    -19.820059   1.000000   1.000000
   11      -19.131867    -19.131907   1.000000   1.000000
   12      -19.111199    -19.111239   1.000000   1.000000
   13      -17.245628    -17.245663   1.000000   1.000000
   14      -17.231172    -17.231207   1.000000   1.000000
   15      -16.592985    -16.593024   1.000000   1.000000
   16      -16.586564    -16.586602   1.000000   1.000000
   17      -16.568251    -16.568288   1.000000   1.000000
   18      -16.521964    -16.522002   1.000000   1.000000
   19      -16.469075    -16.469114   1.000000   1.000000
   20      -16.421663    -16.421701   1.000000   1.000000
   21      -16.202470    -16.202509   1.000000   1.000000
   22      -16.183633    -16.183671   1.000000   1.000000
   23       -7.724637     -7.724682   1.000000   1.000000
   24       -7.680866     -7.680910   1.000000   1.000000
   25       -5.317566     -5.317630   1.000000   1.000000
   26       -4.862722     -4.862781   1.000000   1.000000
   27       -4.531199     -4.531262   1.000000   1.000000
   28       -4.382199     -4.382264   1.000000   1.000000
   29       -4.141427     -4.141496   1.000000   1.000000
   30       -3.938353     -3.938423   1.000000   1.000000
   31       -3.711993     -3.712061   1.000000   1.000000
   32       -3.661873     -3.661939   1.000000   1.000000
   33       -3.525410     -3.525475   1.000000   1.000000
   34       -3.398020     -3.398086   1.000000   1.000000
   35       -3.274407     -3.274470   1.000000   1.000000
   36       -3.166224     -3.166287   1.000000   1.000000
   37       -2.797333     -2.797401   1.000000   1.000000
   38       -2.608300     -2.608364   1.000000   1.000000
   39       -2.084503     -2.084571   1.000000   1.000000
   40       -1.828133     -1.828198   1.000000   1.000000
   41       -1.735653     -1.735721   1.000000   1.000000
   42       -1.674273     -1.674338   1.000000   1.000000
   43       -1.554371     -1.554434   1.000000   1.000000
   44       -1.338932     -1.338993   1.000000   1.000000
   45       -1.169019     -1.169078   1.000000   1.000000
   46       -1.118540     -1.118602   1.000000   1.000000
   47       -0.926957     -0.927014   1.000000   1.000000
   48       -0.912117     -0.912172   1.000000   1.000000
   49       -0.743001     -0.743055   1.000000   1.000000
   50       -0.678258     -0.678317   1.000000   1.000000
   51       -0.549628     -0.549686   1.000000   1.000000
   52       -0.446480     -0.446532   1.000000   1.000000
   53       -0.170875     -0.170931   1.000000   1.000000
   54        0.069438      0.069384   1.000000   1.000000
   55        0.152292      0.152236   1.000000   1.000000
   56        0.180014      0.179961   1.000000   1.000000
   57        0.382057      0.382005   1.000000   1.000000
   58        0.542705      0.542648   1.000000   1.000000
   59        0.617648      0.617595   1.000000   1.000000
   60        0.665811      0.665754   1.000000   1.000000
   61        0.732314      0.732258   1.000000   1.000000
   62        0.835313      0.835261   1.000000   1.000000
   63        0.945266      0.945216   1.000000   1.000000
   64        0.970312      0.970261   1.000000   1.000000
   65        7.434091      7.433954  -0.000000  -0.000000
   66        9.525404      9.525291   0.000000   0.000000
   67        9.675127      9.675010   0.000000   0.000000
   68        9.818875      9.818773   0.000000   0.000000
   69        9.986888      9.986759   0.000000   0.000000
   70       10.053964     10.053842   0.000000   0.000000
   71       10.348522     10.348408   0.000000   0.000000
   72       10.840122     10.840016   0.000000   0.000000
   73       10.944535     10.944407   0.000000   0.000000
   74       11.076248     11.076121   0.000000   0.000000
   75       11.253151     11.253025   0.000000   0.000000
   76       11.368643     11.368519   0.000000   0.000000
   77       11.544545     11.544432   0.000000   0.000000
   78       11.899906     11.899768   0.000000   0.000000
   79       11.956068     11.955943   0.000000   0.000000
   80       12.103519     12.103386   0.000000   0.000000
   81       12.245854     12.245739   0.000000   0.000000
   82       12.298727     12.298612   0.000000   0.000000
   83       12.630604     12.630486   0.000000   0.000000
   84       13.025250     13.025048   0.000000   0.000000
   85       13.158347     13.158341   0.000000   0.000000
   86       13.190378     13.187912   0.000000   0.000000
 
  0.2857143E+00 -0.2843124E-16  0.4701391E-14  0.1428571E-01
    1      -40.937780    -40.937832   1.000000   1.000000
    2      -40.934068    -40.934130   1.000000   1.000000
    3      -40.932445    -40.932483   1.000000   1.000000
    4      -40.929839    -40.929886   1.000000   1.000000
    5      -40.852985    -40.853016   1.000000   1.000000
    6      -40.852749    -40.852780   1.000000   1.000000
    7      -40.829801    -40.829814   1.000000   1.000000
    8      -40.802848    -40.802861   1.000000   1.000000
    9      -19.857445    -19.857486   1.000000   1.000000
   10      -19.814244    -19.814285   1.000000   1.000000
   11      -19.120023    -19.120062   1.000000   1.000000
   12      -19.107441    -19.107480   1.000000   1.000000
   13      -17.249854    -17.249889   1.000000   1.000000
   14      -17.240336    -17.240371   1.000000   1.000000
   15      -16.605226    -16.605264   1.000000   1.000000
   16      -16.595761    -16.595800   1.000000   1.000000
   17      -16.579841    -16.579879   1.000000   1.000000
   18      -16.540064    -16.540103   1.000000   1.000000
   19      -16.480836    -16.480875   1.000000   1.000000
   20      -16.449650    -16.449688   1.000000   1.000000
   21      -16.206966    -16.207005   1.000000   1.000000
   22      -16.190411    -16.190449   1.000000   1.000000
   23       -7.742118     -7.742163   1.000000   1.000000
   24       -7.709196     -7.709240   1.000000   1.000000
   25       -5.296518     -5.296582   1.000000   1.000000
   26       -4.900531     -4.900590   1.000000   1.000000
   27       -4.504599     -4.504661   1.000000   1.000000
   28       -4.361017     -4.361079   1.000000   1.000000
   29       -4.111135     -4.111205   1.000000   1.000000
   30       -3.903488     -3.903558   1.000000   1.000000
   31       -3.611895     -3.611962   1.000000   1.000000
   32       -3.538493     -3.538559   1.000000   1.000000
   33       -3.482278     -3.482341   1.000000   1.000000
   34       -3.296793     -3.296859   1.000000   1.000000
   35       -3.063434     -3.063494   1.000000   1.000000
   36       -2.934216     -2.934276   1.000000   1.000000
   37       -2.707009     -2.707076   1.000000   1.000000
   38       -2.509261     -2.509326   1.000000   1.000000
   39       -2.032446     -2.032515   1.000000   1.000000
   40       -1.921043     -1.921110   1.000000   1.000000
   41       -1.815920     -1.815989   1.000000   1.000000
   42       -1.659830     -1.659892   1.000000   1.000000
   43       -1.543188     -1.543251   1.000000   1.000000
   44       -1.387078     -1.387140   1.000000   1.000000
   45       -1.193279     -1.193340   1.000000   1.000000
   46       -1.178430     -1.178491   1.000000   1.000000
   47       -1.047468     -1.047527   1.000000   1.000000
   48       -0.949556     -0.949612   1.000000   1.000000
   49       -0.914708     -0.914766   1.000000   1.000000
   50       -0.800470     -0.800529   1.000000   1.000000
   51       -0.743945     -0.744003   1.000000   1.000000
   52       -0.502210     -0.502263   1.000000   1.000000
   53       -0.184343     -0.184399   1.000000   1.000000
   54       -0.019813     -0.019869   1.000000   1.000000
   55        0.098860      0.098804   1.000000   1.000000
   56        0.153694      0.153642   1.000000   1.000000
   57        0.320464      0.320410   1.000000   1.000000
   58        0.501751      0.501698   1.000000   1.000000
   59        0.625702      0.625647   1.000000   1.000000
   60        0.690729      0.690676   1.000000   1.000000
   61        0.800482      0.800430   1.000000   1.000000
   62        0.889204      0.889153   1.000000   1.000000
   63        0.951271      0.951222   1.000000   1.000000
   64        1.006365      1.006311   1.000000   1.000000
   65        7.927630      7.927490   0.000000   0.000000
   66        9.473199      9.473082   0.000000   0.000000
   67        9.519342      9.519207   0.000000   0.000000
   68        9.759164      9.759054   0.000000   0.000000
   69        9.884851      9.884714   0.000000   0.000000
   70       10.127940     10.127819   0.000000   0.000000
   71       10.464174     10.464056   0.000000   0.000000
   72       10.686771     10.686669   0.000000   0.000000
   73       10.964405     10.964281   0.000000   0.000000
   74       11.121983     11.121860   0.000000   0.000000
   75       11.256258     11.256124   0.000000   0.000000
   76       11.282959     11.282859   0.000000   0.000000
   77       11.455890     11.455762   0.000000   0.000000
   78       11.577042     11.576932   0.000000   0.000000
   79       11.787826     11.787702   0.000000   0.000000
   80       11.969987     11.969866   0.000000   0.000000
   81       12.025128     12.025023   0.000000   0.000000
   82       12.142383     12.142251   0.000000   0.000000
   83       12.403694     12.403588   0.000000   0.000000
   84       12.815193     12.815071   0.000000   0.000000
   85       13.011577     13.011433   0.000000   0.000000
   86       13.462377     13.410781   0.000000   0.000000
 
  0.4285714E+00 -0.2075940E-16 -0.5896054E-16  0.1428571E-01
    1      -40.936966    -40.937019   1.000000   1.000000
    2      -40.934343    -40.934401   1.000000   1.000000
    3      -40.931729    -40.931770   1.000000   1.000000
    4      -40.930256    -40.930303   1.000000   1.000000
    5      -40.853228    -40.853258   1.000000   1.000000
    6      -40.853013    -40.853043   1.000000   1.000000
    7      -40.829716    -40.829729   1.000000   1.000000
    8      -40.802996    -40.803008   1.000000   1.000000
    9      -19.833842    -19.833883   1.000000   1.000000
   10      -19.813758    -19.813799   1.000000   1.000000
   11      -19.109776    -19.109815   1.000000   1.000000
   12      -19.105094    -19.105133   1.000000   1.000000
   13      -17.253825    -17.253861   1.000000   1.000000
   14      -17.248136    -17.248171   1.000000   1.000000
   15      -16.620527    -16.620565   1.000000   1.000000
   16      -16.606407    -16.606445   1.000000   1.000000
   17      -16.581804    -16.581843   1.000000   1.000000
   18      -16.552601    -16.552640   1.000000   1.000000
   19      -16.487129    -16.487168   1.000000   1.000000
   20      -16.475027    -16.475065   1.000000   1.000000
   21      -16.209952    -16.209991   1.000000   1.000000
   22      -16.196126    -16.196165   1.000000   1.000000
   23       -7.756809     -7.756855   1.000000   1.000000
   24       -7.731944     -7.731989   1.000000   1.000000
   25       -5.266517     -5.266580   1.000000   1.000000
   26       -4.942986     -4.943047   1.000000   1.000000
   27       -4.465806     -4.465866   1.000000   1.000000
   28       -4.359655     -4.359716   1.000000   1.000000
   29       -4.072172     -4.072243   1.000000   1.000000
   30       -3.883214     -3.883285   1.000000   1.000000
   31       -3.609841     -3.609909   1.000000   1.000000
   32       -3.399763     -3.399825   1.000000   1.000000
   33       -3.392303     -3.392366   1.000000   1.000000
   34       -3.265339     -3.265405   1.000000   1.000000
   35       -2.818403     -2.818459   1.000000   1.000000
   36       -2.710923     -2.710979   1.000000   1.000000
   37       -2.607068     -2.607132   1.000000   1.000000
   38       -2.441888     -2.441953   1.000000   1.000000
   39       -2.009143     -2.009212   1.000000   1.000000
   40       -1.946564     -1.946632   1.000000   1.000000
   41       -1.781908     -1.781975   1.000000   1.000000
   42       -1.683265     -1.683328   1.000000   1.000000
   43       -1.481583     -1.481644   1.000000   1.000000
   44       -1.437304     -1.437371   1.000000   1.000000
   45       -1.371652     -1.371718   1.000000   1.000000
   46       -1.253675     -1.253735   1.000000   1.000000
   47       -1.188090     -1.188151   1.000000   1.000000
   48       -1.103364     -1.103424   1.000000   1.000000
   49       -0.987537     -0.987596   1.000000   1.000000
   50       -0.935555     -0.935617   1.000000   1.000000
   51       -0.789937     -0.789993   1.000000   1.000000
   52       -0.538991     -0.539045   1.000000   1.000000
   53       -0.271181     -0.271238   1.000000   1.000000
   54       -0.061779     -0.061835   1.000000   1.000000
   55        0.057508      0.057453   1.000000   1.000000
   56        0.101991      0.101937   1.000000   1.000000
   57        0.337197      0.337143   1.000000   1.000000
   58        0.431664      0.431612   1.000000   1.000000
   59        0.672367      0.672313   1.000000   1.000000
   60        0.699294      0.699242   1.000000   1.000000
   61        0.841489      0.841439   1.000000   1.000000
   62        0.896987      0.896942   1.000000   1.000000
   63        0.999537      0.999482   1.000000   1.000000
   64        1.029401      1.029347   1.000000   1.000000
   65        8.465999      8.465847   0.000000   0.000000
   66        9.331287      9.331150   0.000000   0.000000
   67        9.604286      9.604174   0.000000   0.000000
   68        9.730198      9.730083   0.000000   0.000000
   69        9.798531      9.798388   0.000000   0.000000
   70       10.279489     10.279370   0.000000   0.000000
   71       10.384473     10.384361   0.000000   0.000000
   72       10.535703     10.535599   0.000000   0.000000
   73       10.679115     10.678984   0.000000   0.000000
   74       10.904862     10.904732   0.000000   0.000000
   75       10.944558     10.944436   0.000000   0.000000
   76       11.295652     11.295533   0.000000   0.000000
   77       11.332665     11.332549   0.000000   0.000000
   78       11.596918     11.596801   0.000000   0.000000
   79       11.695674     11.695572   0.000000   0.000000
   80       11.979588     11.979472   0.000000   0.000000
   81       12.009128     12.009022   0.000000   0.000000
   82       12.240523     12.240414   0.000000   0.000000
   83       12.358368     12.358251   0.000000   0.000000
   84       12.636846     12.636745   0.000000   0.000000
   85       13.005819     13.005698   0.000000   0.000000
   86       13.520594     13.514763   0.000000   0.000000
 
  0.0000000E+00  0.2000000E+00 -0.9032745E-16  0.1428571E-01
    1      -40.938754    -40.938805   1.000000   1.000000
    2      -40.934376    -40.934436   1.000000   1.000000
    3      -40.933099    -40.933139   1.000000   1.000000
    4      -40.929271    -40.929320   1.000000   1.000000
    5      -40.852527    -40.852558   1.000000   1.000000
    6      -40.852295    -40.852326   1.000000   1.000000
    7      -40.829949    -40.829962   1.000000   1.000000
    8      -40.802547    -40.802559   1.000000   1.000000
    9      -19.879586    -19.879628   1.000000   1.000000
   10      -19.828295    -19.828336   1.000000   1.000000
   11      -19.134464    -19.134504   1.000000   1.000000
   12      -19.127127    -19.127167   1.000000   1.000000
   13      -17.241652    -17.241688   1.000000   1.000000
   14      -17.230834    -17.230869   1.000000   1.000000
   15      -16.605350    -16.605389   1.000000   1.000000
   16      -16.573628    -16.573666   1.000000   1.000000
   17      -16.552812    -16.552849   1.000000   1.000000
   18      -16.507222    -16.507260   1.000000   1.000000
   19      -16.455086    -16.455124   1.000000   1.000000
   20      -16.413843    -16.413880   1.000000   1.000000
   21      -16.199471    -16.199510   1.000000   1.000000
   22      -16.182539    -16.182577   1.000000   1.000000
   23       -7.716734     -7.716779   1.000000   1.000000
   24       -7.709292     -7.709337   1.000000   1.000000
   25       -5.304992     -5.305056   1.000000   1.000000
   26       -4.825911     -4.825969   1.000000   1.000000
   27       -4.529963     -4.530027   1.000000   1.000000
   28       -4.377971     -4.378036   1.000000   1.000000
   29       -4.137871     -4.137940   1.000000   1.000000
   30       -3.929567     -3.929636   1.000000   1.000000
   31       -3.771858     -3.771926   1.000000   1.000000
   32       -3.740178     -3.740245   1.000000   1.000000
   33       -3.607971     -3.608038   1.000000   1.000000
   34       -3.471220     -3.471287   1.000000   1.000000
   35       -3.307244     -3.307308   1.000000   1.000000
   36       -3.241370     -3.241433   1.000000   1.000000
   37       -2.756817     -2.756884   1.000000   1.000000
   38       -2.688895     -2.688961   1.000000   1.000000
   39       -2.034267     -2.034334   1.000000   1.000000
   40       -1.801484     -1.801550   1.000000   1.000000
   41       -1.700968     -1.701034   1.000000   1.000000
   42       -1.666089     -1.666153   1.000000   1.000000
   43       -1.596716     -1.596779   1.000000   1.000000
   44       -1.312228     -1.312287   1.000000   1.000000
   45       -1.137697     -1.137759   1.000000   1.000000
   46       -1.085943     -1.086002   1.000000   1.000000
   47       -0.928022     -0.928079   1.000000   1.000000
   48       -0.890933     -0.890987   1.000000   1.000000
   49       -0.704716     -0.704768   1.000000   1.000000
   50       -0.620388     -0.620446   1.000000   1.000000
   51       -0.521649     -0.521702   1.000000   1.000000
   52       -0.440080     -0.440137   1.000000   1.000000
   53       -0.213495     -0.213551   1.000000   1.000000
   54        0.139362      0.139308   1.000000   1.000000
   55        0.164193      0.164139   1.000000   1.000000
   56        0.253226      0.253173   1.000000   1.000000
   57        0.354975      0.354922   1.000000   1.000000
   58        0.578926      0.578868   1.000000   1.000000
   59        0.583824      0.583767   1.000000   1.000000
   60        0.626213      0.626159   1.000000   1.000000
   61        0.749563      0.749505   1.000000   1.000000
   62        0.807320      0.807269   1.000000   1.000000
   63        0.923108      0.923055   1.000000   1.000000
   64        0.966696      0.966649   1.000000   1.000000
   65        7.476885      7.476750  -0.000000  -0.000000
   66        9.341978      9.341862   0.000000   0.000000
   67        9.499310      9.499190   0.000000   0.000000
   68        9.928999      9.928900   0.000000   0.000000
   69       10.036042     10.035922   0.000000   0.000000
   70       10.231080     10.230976   0.000000   0.000000
   71       10.412329     10.412223   0.000000   0.000000
   72       10.723891     10.723747   0.000000   0.000000
   73       10.895465     10.895354   0.000000   0.000000
   74       10.945761     10.945631   0.000000   0.000000
   75       11.278093     11.277967   0.000000   0.000000
   76       11.387917     11.387803   0.000000   0.000000
   77       11.635976     11.635851   0.000000   0.000000
   78       11.913161     11.913036   0.000000   0.000000
   79       12.017249     12.017142   0.000000   0.000000
   80       12.187724     12.187584   0.000000   0.000000
   81       12.511153     12.511022   0.000000   0.000000
   82       12.663805     12.663666   0.000000   0.000000
   83       12.844666     12.844549   0.000000   0.000000
   84       12.968080     12.967949   0.000000   0.000000
   85       13.137082     13.136963   0.000000   0.000000
   86       13.491532     13.490229   0.000000   0.000000
 
  0.1428571E+00  0.2000000E+00 -0.4865284E-14  0.1428571E-01
    1      -40.938356    -40.938408   1.000000   1.000000
    2      -40.934319    -40.934381   1.000000   1.000000
    3      -40.933148    -40.933185   1.000000   1.000000
    4      -40.929294    -40.929342   1.000000   1.000000
    5      -40.852636    -40.852667   1.000000   1.000000
    6      -40.852473    -40.852503   1.000000   1.000000
    7      -40.829986    -40.829999   1.000000   1.000000
    8      -40.802609    -40.802621   1.000000   1.000000
    9      -19.863866    -19.863908   1.000000   1.000000
   10      -19.827195    -19.827236   1.000000   1.000000
   11      -19.142352    -19.142392   1.000000   1.000000
   12      -19.119342    -19.119381   1.000000   1.000000
   13      -17.243044    -17.243079   1.000000   1.000000
   14      -17.236117    -17.236152   1.000000   1.000000
   15      -16.606173    -16.606213   1.000000   1.000000
   16      -16.578012    -16.578050   1.000000   1.000000
   17      -16.558304    -16.558341   1.000000   1.000000
   18      -16.513865    -16.513903   1.000000   1.000000
   19      -16.452359    -16.452397   1.000000   1.000000
   20      -16.433354    -16.433392   1.000000   1.000000
   21      -16.200390    -16.200428   1.000000   1.000000
   22      -16.187468    -16.187506   1.000000   1.000000
   23       -7.751090     -7.751135   1.000000   1.000000
   24       -7.715974     -7.716018   1.000000   1.000000
   25       -5.296573     -5.296638   1.000000   1.000000
   26       -4.812934     -4.812992   1.000000   1.000000
   27       -4.519346     -4.519409   1.000000   1.000000
   28       -4.358775     -4.358838   1.000000   1.000000
   29       -4.124363     -4.124433   1.000000   1.000000
   30       -3.901451     -3.901521   1.000000   1.000000
   31       -3.733048     -3.733114   1.000000   1.000000
   32       -3.701118     -3.701185   1.000000   1.000000
   33       -3.623624     -3.623690   1.000000   1.000000
   34       -3.399899     -3.399964   1.000000   1.000000
   35       -3.222403     -3.222466   1.000000   1.000000
   36       -3.168002     -3.168065   1.000000   1.000000
   37       -2.698006     -2.698072   1.000000   1.000000
   38       -2.616220     -2.616285   1.000000   1.000000
   39       -1.980756     -1.980823   1.000000   1.000000
   40       -1.877530     -1.877599   1.000000   1.000000
   41       -1.742988     -1.743056   1.000000   1.000000
   42       -1.656083     -1.656146   1.000000   1.000000
   43       -1.607135     -1.607199   1.000000   1.000000
   44       -1.288360     -1.288419   1.000000   1.000000
   45       -1.175704     -1.175766   1.000000   1.000000
   46       -1.070409     -1.070468   1.000000   1.000000
   47       -1.016342     -1.016400   1.000000   1.000000
   48       -0.922208     -0.922263   1.000000   1.000000
   49       -0.768776     -0.768831   1.000000   1.000000
   50       -0.653100     -0.653154   1.000000   1.000000
   51       -0.625943     -0.626001   1.000000   1.000000
   52       -0.493200     -0.493257   1.000000   1.000000
   53       -0.191625     -0.191681   1.000000   1.000000
   54        0.080762      0.080707   1.000000   1.000000
   55        0.105185      0.105131   1.000000   1.000000
   56        0.266680      0.266627   1.000000   1.000000
   57        0.329058      0.329004   1.000000   1.000000
   58        0.532830      0.532777   1.000000   1.000000
   59        0.609302      0.609246   1.000000   1.000000
   60        0.665520      0.665463   1.000000   1.000000
   61        0.773027      0.772974   1.000000   1.000000
   62        0.808017      0.807962   1.000000   1.000000
   63        0.933467      0.933417   1.000000   1.000000
   64        0.973948      0.973899   1.000000   1.000000
   65        7.798912      7.798779   0.000000   0.000000
   66        9.236531      9.236407   0.000000   0.000000
   67        9.320576      9.320451   0.000000   0.000000
   68        9.906181      9.906078   0.000000   0.000000
   69       10.031087     10.030965   0.000000   0.000000
   70       10.225551     10.225435   0.000000   0.000000
   71       10.611755     10.611659   0.000000   0.000000
   72       10.693607     10.693479   0.000000   0.000000
   73       11.016071     11.015953   0.000000   0.000000
   74       11.093700     11.093577   0.000000   0.000000
   75       11.173381     11.173259   0.000000   0.000000
   76       11.335592     11.335482   0.000000   0.000000
   77       11.481339     11.481223   0.000000   0.000000