 running on   12 total cores
 distrk:  each k-point on   12 cores,    1 groups
 distr:  one band on    6 cores,    2 groups
 using from now: INCAR     
 vasp.6.1.2 22Jul20 (build Mar 20 2021 11:25:07) complex                        
  
 POSCAR found type information on POSCAR LiP O 
 POSCAR found :  3 types and      26 ions
 scaLAPACK will be used
 LDA part: xc-table for Pade appr. of Perdew
 generate k-points for:    7    5    4
 POSCAR, INCAR and KPOINTS ok, starting setup
 FFT: planning ...
 WAVECAR not read
 entering main loop
       N       E                     dE             d eps       ncg     rms          rms(c)
DAV:   1     0.113911460467E+04    0.11391E+04   -0.63422E+04 24424   0.154E+03
DAV:   2    -0.646140322899E+02   -0.12037E+04   -0.11333E+04 29006   0.406E+02
DAV:   3    -0.172491315420E+03   -0.10788E+03   -0.10724E+03 31488   0.124E+02
DAV:   4    -0.182735688162E+03   -0.10244E+02   -0.10201E+02 46648   0.298E+01
DAV:   5    -0.184083443620E+03   -0.13478E+01   -0.13474E+01 33040   0.640E+00    0.589E+01
DAV:   6    -0.161901386064E+03    0.22182E+02   -0.88716E+01 30376   0.328E+01    0.316E+01
DAV:   7    -0.163791316263E+03   -0.18899E+01   -0.81319E+00 32312   0.943E+00    0.102E+01
DAV:   8    -0.164082939057E+03   -0.29162E+00   -0.95183E-01 32376   0.387E+00    0.507E+00
DAV:   9    -0.164208627339E+03   -0.12569E+00   -0.17200E-01 32976   0.177E+00    0.231E+00
DAV:  10    -0.164231556839E+03   -0.22929E-01   -0.59638E-02 29936   0.121E+00    0.690E-01
DAV:  11    -0.164242230595E+03   -0.10674E-01   -0.12486E-02 30304   0.490E-01    0.353E-01
DAV:  12    -0.164244833968E+03   -0.26034E-02   -0.20310E-03 29448   0.209E-01    0.169E-01
DAV:  13    -0.164245727786E+03   -0.89382E-03   -0.86964E-04 29704   0.124E-01    0.508E-02
DAV:  14    -0.164245872131E+03   -0.14435E-03   -0.16413E-04 35656   0.579E-02    0.292E-02
DAV:  15    -0.164245936793E+03   -0.64662E-04   -0.52638E-05 25488   0.316E-02    0.193E-02
DAV:  16    -0.164245948098E+03   -0.11305E-04   -0.90516E-06 20176   0.143E-02    0.114E-02
DAV:  17    -0.164245951250E+03   -0.31518E-05   -0.49875E-06 17456   0.914E-03
   1 F= -.16424595E+03 E0= -.16424595E+03  d E =0.000000E+00  mag=    -0.0009
