  12  12   1   0
  0.9893771E+01  0.5330402E-09  0.5330402E-09  0.4748969E-09  0.5000000E-15
  1.000000000000000E-004
  CAR 
 unknown system                          
     16.06396800    -42.88213593  301      2.80109461      1.00000000
    -42.882  0.0000E+00  0.0000E+00  0.0000E+00  0.0000E+00
    -42.686  0.0000E+00  0.0000E+00  0.0000E+00  0.0000E+00
    -42.489  0.0000E+00  0.0000E+00  0.0000E+00  0.0000E+00
    -42.293  0.0000E+00  0.0000E+00  0.0000E+00  0.0000E+00
    -42.096  0.0000E+00  0.0000E+00  0.0000E+00  0.0000E+00
    -41.900  0.0000E+00  0.0000E+00  0.0000E+00  0.0000E+00
    -41.703  0.0000E+00  0.0000E+00  0.0000E+00  0.0000E+00
    -41.507  0.0000E+00  0.0000E+00  0.0000E+00  0.0000E+00
    -41.310  0.0000E+00  0.0000E+00  0.0000E+00  0.0000E+00
    -41.114  0.0000E+00  0.0000E+00  0.0000E+00  0.0000E+00
    -40.917  0.0000E+00  0.0000E+00  0.0000E+00  0.0000E+00
    -40.721  0.0000E+00  0.0000E+00  0.0000E+00  0.0000E+00
    -40.524  0.0000E+00  0.0000E+00  0.0000E+00  0.0000E+00
    -40.328  0.0000E+00  0.0000E+00  0.0000E+00  0.0000E+00
    -40.131  0.0000E+00  0.0000E+00  0.4040E-01  0.4040E-01
    -39.935  0.0000E+00  0.0000E+00  0.4040E-01  0.4040E-01
    -39.738  0.0000E+00  0.0000E+00  0.4040E-01  0.4040E-01
    -39.542  0.0000E+00  0.0000E+00  0.4040E-01  0.4040E-01
    -39.345  0.0000E+00  0.0000E+00  0.4040E-01  0.4040E-01
    -39.149  0.0000E+00  0.0000E+00  0.4040E-01  0.4040E-01
    -38.952  0.0000E+00  0.0000E+00  0.4040E-01  0.4040E-01
    -38.756  0.0000E+00  0.0000E+00  0.4040E-01  0.4040E-01
    -38.559  0.0000E+00  0.0000E+00  0.4040E-01  0.4040E-01
    -38.363  0.0000E+00  0.0000E+00  0.4040E-01  0.4040E-01
    -38.166  0.0000E+00  0.0000E+00  0.4040E-01  0.4040E-01
    -37.970  0.0000E+00  0.0000E+00  0.4040E-01  0.4040E-01
    -37.773  0.0000E+00  0.0000E+00  0.4040E-01  0.4040E-01
    -37.577  0.0000E+00  0.0000E+00  0.4040E-01  0.4040E-01
    -37.380  0.0000E+00  0.0000E+00  0.4040E-01  0.4040E-01
    -37.184  0.0000E+00  0.0000E+00  0.4040E-01  0.4040E-01
    -36.988  0.0000E+00  0.0000E+00  0.4040E-01  0.4040E-01
    -36.791  0.0000E+00  0.0000E+00  0.4040E-01  0.4040E-01
    -36.595  0.0000E+00  0.0000E+00  0.4040E-01  0.4040E-01
    -36.398  0.0000E+00  0.0000E+00  0.4040E-01  0.4040E-01
    -36.202  0.0000E+00  0.0000E+00  0.4040E-01  0.4040E-01
    -36.005  0.0000E+00  0.0000E+00  0.4040E-01  0.4040E-01
    -35.809  0.0000E+00  0.0000E+00  0.4040E-01  0.4040E-01
    -35.612  0.0000E+00  0.0000E+00  0.4040E-01  0.4040E-01
    -35.416  0.0000E+00  0.0000E+00  0.4040E-01  0.4040E-01
    -35.219  0.0000E+00  0.0000E+00  0.4040E-01  0.4040E-01
    -35.023  0.0000E+00  0.0000E+00  0.4040E-01  0.4040E-01
    -34.826  0.0000E+00  0.0000E+00  0.4040E-01  0.4040E-01
    -34.630  0.0000E+00  0.0000E+00  0.4040E-01  0.4040E-01
    -34.433  0.0000E+00  0.0000E+00  0.4040E-01  0.4040E-01
    -34.237  0.0000E+00  0.0000E+00  0.4040E-01  0.4040E-01
    -34.040  0.0000E+00  0.0000E+00  0.4040E-01  0.4040E-01
    -33.844  0.0000E+00  0.0000E+00  0.4040E-01  0.4040E-01
    -33.647  0.0000E+00  0.0000E+00  0.4040E-01  0.4040E-01
    -33.451  0.0000E+00  0.0000E+00  0.4040E-01  0.4040E-01
    -33.254  0.0000E+00  0.0000E+00  0.4040E-01  0.4040E-01
    -33.058  0.0000E+00  0.0000E+00  0.4040E-01  0.4040E-01
    -32.861  0.0000E+00  0.0000E+00  0.4040E-01  0.4040E-01
    -32.665  0.0000E+00  0.0000E+00  0.4040E-01  0.4040E-01
    -32.468  0.0000E+00  0.0000E+00  0.4040E-01  0.4040E-01
    -32.272  0.0000E+00  0.0000E+00  0.4040E-01  0.4040E-01
    -32.075  0.0000E+00  0.0000E+00  0.4040E-01  0.4040E-01
    -31.879  0.0000E+00  0.0000E+00  0.4040E-01  0.4040E-01
    -31.682  0.0000E+00  0.0000E+00  0.4040E-01  0.4040E-01
    -31.486  0.0000E+00  0.0000E+00  0.4040E-01  0.4040E-01
    -31.289  0.0000E+00  0.0000E+00  0.4040E-01  0.4040E-01
    -31.093  0.0000E+00  0.0000E+00  0.4040E-01  0.4040E-01
    -30.896  0.0000E+00  0.0000E+00  0.4040E-01  0.4040E-01
    -30.700  0.0000E+00  0.0000E+00  0.4040E-01  0.4040E-01
    -30.503  0.0000E+00  0.0000E+00  0.4040E-01  0.4040E-01
    -30.307  0.0000E+00  0.0000E+00  0.4040E-01  0.4040E-01
    -30.110  0.0000E+00  0.0000E+00  0.4040E-01  0.4040E-01
    -29.914  0.0000E+00  0.0000E+00  0.4040E-01  0.4040E-01
    -29.718  0.0000E+00  0.0000E+00  0.4040E-01  0.4040E-01
    -29.521  0.0000E+00  0.0000E+00  0.4040E-01  0.4040E-01
    -29.325  0.0000E+00  0.0000E+00  0.4040E-01  0.4040E-01
    -29.128  0.0000E+00  0.0000E+00  0.4040E-01  0.4040E-01
    -28.932  0.0000E+00  0.0000E+00  0.4040E-01  0.4040E-01
    -28.735  0.0000E+00  0.0000E+00  0.4040E-01  0.4040E-01
    -28.539  0.0000E+00  0.0000E+00  0.4040E-01  0.4040E-01
    -28.342  0.0000E+00  0.0000E+00  0.4040E-01  0.4040E-01
    -28.146  0.0000E+00  0.0000E+00  0.4040E-01  0.4040E-01
    -27.949  0.0000E+00  0.0000E+00  0.4040E-01  0.4040E-01
    -27.753  0.0000E+00  0.0000E+00  0.4040E-01  0.4040E-01
    -27.556  0.0000E+00  0.0000E+00  0.4040E-01  0.4040E-01
    -27.360  0.0000E+00  0.0000E+00  0.4040E-01  0.4040E-01
    -27.163  0.0000E+00  0.0000E+00  0.4040E-01  0.4040E-01
    -26.967  0.0000E+00  0.0000E+00  0.4040E-01  0.4040E-01
    -26.770  0.0000E+00  0.0000E+00  0.4040E-01  0.4040E-01
    -26.574  0.0000E+00  0.0000E+00  0.4040E-01  0.4040E-01
    -26.377  0.0000E+00  0.0000E+00  0.4040E-01  0.4040E-01
    -26.181  0.0000E+00  0.0000E+00  0.4040E-01  0.4040E-01
    -25.984  0.0000E+00  0.0000E+00  0.4040E-01  0.4040E-01
    -25.788  0.0000E+00  0.0000E+00  0.4040E-01  0.4040E-01
    -25.591  0.0000E+00  0.0000E+00  0.4040E-01  0.4040E-01
    -25.395  0.0000E+00  0.0000E+00  0.4040E-01  0.4040E-01
    -25.198  0.0000E+00  0.0000E+00  0.4040E-01  0.4040E-01
    -25.002  0.0000E+00  0.0000E+00  0.4040E-01  0.4040E-01
    -24.805  0.0000E+00  0.0000E+00  0.4040E-01  0.4040E-01
    -24.609  0.0000E+00  0.0000E+00  0.4040E-01  0.4040E-01
    -24.412  0.0000E+00  0.0000E+00  0.4040E-01  0.4040E-01
    -24.216  0.0000E+00  0.0000E+00  0.4040E-01  0.4040E-01
    -24.019  0.0000E+00  0.0000E+00  0.4040E-01  0.4040E-01
    -23.823  0.0000E+00  0.0000E+00  0.4040E-01  0.4040E-01
    -23.626  0.0000E+00  0.0000E+00  0.4040E-01  0.4040E-01
    -23.430  0.0000E+00  0.0000E+00  0.4040E-01  0.4040E-01
    -23.233  0.0000E+00  0.0000E+00  0.4040E-01  0.4040E-01
    -23.037  0.0000E+00  0.0000E+00  0.4040E-01  0.4040E-01
    -22.840  0.0000E+00  0.0000E+00  0.4040E-01  0.4040E-01
    -22.644  0.0000E+00  0.0000E+00  0.4040E-01  0.4040E-01
    -22.447  0.0000E+00  0.0000E+00  0.4040E-01  0.4040E-01
    -22.251  0.0000E+00  0.0000E+00  0.4040E-01  0.4040E-01
    -22.055  0.0000E+00  0.0000E+00  0.4040E-01  0.4040E-01
    -21.858  0.0000E+00  0.0000E+00  0.4040E-01  0.4040E-01
    -21.662  0.0000E+00  0.0000E+00  0.4040E-01  0.4040E-01
    -21.465  0.0000E+00  0.0000E+00  0.4040E-01  0.4040E-01
    -21.269  0.0000E+00  0.0000E+00  0.4040E-01  0.4040E-01
    -21.072  0.0000E+00  0.0000E+00  0.4040E-01  0.4040E-01
    -20.876  0.0000E+00  0.0000E+00  0.4040E-01  0.4040E-01
    -20.679  0.0000E+00  0.0000E+00  0.4040E-01  0.4040E-01
    -20.483  0.0000E+00  0.0000E+00  0.4040E-01  0.4040E-01
    -20.286  0.0000E+00  0.0000E+00  0.4040E-01  0.4040E-01
    -20.090  0.0000E+00  0.0000E+00  0.4040E-01  0.4040E-01
    -19.893  0.0000E+00  0.0000E+00  0.4040E-01  0.4040E-01
    -19.697  0.0000E+00  0.0000E+00  0.4040E-01  0.4040E-01
    -19.500  0.0000E+00  0.0000E+00  0.4040E-01  0.4040E-01
    -19.304  0.0000E+00  0.0000E+00  0.4040E-01  0.4040E-01
    -19.107  0.0000E+00  0.0000E+00  0.4040E-01  0.4040E-01
    -18.911  0.0000E+00  0.0000E+00  0.4040E-01  0.4040E-01
    -18.714  0.0000E+00  0.0000E+00  0.4040E-01  0.4040E-01
    -18.518  0.0000E+00  0.0000E+00  0.4040E-01  0.4040E-01
    -18.321  0.0000E+00  0.0000E+00  0.4040E-01  0.4040E-01
    -18.125  0.0000E+00  0.0000E+00  0.4040E-01  0.4040E-01
    -17.928  0.0000E+00  0.0000E+00  0.4040E-01  0.4040E-01
    -17.732  0.0000E+00  0.0000E+00  0.4040E-01  0.4040E-01
    -17.535  0.0000E+00  0.0000E+00  0.4040E-01  0.4040E-01
    -17.339  0.0000E+00  0.0000E+00  0.4040E-01  0.4040E-01
    -17.142  0.0000E+00  0.0000E+00  0.4040E-01  0.4040E-01
    -16.946  0.5601E-01  0.5601E-01  0.4371E-01  0.4371E-01
    -16.749  0.0000E+00  0.0000E+00  0.5051E-01  0.5051E-01
    -16.553  0.4546E-01  0.4546E-01  0.5550E-01  0.5550E-01
    -16.356  0.0000E+00  0.0000E+00  0.6061E-01  0.6061E-01
    -16.160  0.0000E+00  0.0000E+00  0.6061E-01  0.6061E-01
    -15.963  0.0000E+00  0.0000E+00  0.6061E-01  0.6061E-01
    -15.767  0.0000E+00  0.0000E+00  0.6061E-01  0.6061E-01
    -15.570  0.0000E+00  0.0000E+00  0.6061E-01  0.6061E-01
    -15.374  0.0000E+00  0.0000E+00  0.6061E-01  0.6061E-01
    -15.177  0.0000E+00  0.0000E+00  0.6061E-01  0.6061E-01
    -14.981  0.1479E+00  0.1479E+00  0.7749E-01  0.7749E-01
    -14.784  0.0000E+00  0.0000E+00  0.8081E-01  0.8081E-01
    -14.588  0.0000E+00  0.0000E+00  0.8081E-01  0.8081E-01
    -14.392  0.0000E+00  0.0000E+00  0.8081E-01  0.8081E-01
    -14.195  0.0000E+00  0.0000E+00  0.8081E-01  0.8081E-01
    -13.999  0.0000E+00  0.0000E+00  0.8081E-01  0.8081E-01
    -13.802  0.0000E+00  0.0000E+00  0.8081E-01  0.8081E-01
    -13.606  0.0000E+00  0.0000E+00  0.8081E-01  0.8081E-01
    -13.409  0.0000E+00  0.0000E+00  0.8081E-01  0.8081E-01
    -13.213  0.0000E+00  0.0000E+00  0.8081E-01  0.8081E-01
    -13.016  0.0000E+00  0.0000E+00  0.8081E-01  0.8081E-01
    -12.820  0.5454E-01  0.5453E-01  0.8344E-01  0.8344E-01
    -12.623  0.1365E-01  0.1365E-01  0.8769E-01  0.8769E-01
    -12.427  0.0000E+00  0.0000E+00  0.9091E-01  0.9091E-01
    -12.230  0.0000E+00  0.0000E+00  0.9091E-01  0.9091E-01
    -12.034  0.7298E-02  0.7298E-02  0.9339E-01  0.9339E-01
    -11.837  0.7299E-02  0.7299E-02  0.9482E-01  0.9482E-01
    -11.641  0.7735E-02  0.7735E-02  0.9631E-01  0.9631E-01
    -11.444  0.7736E-02  0.7736E-02  0.9783E-01  0.9783E-01
    -11.248  0.1666E-01  0.1666E-01  0.1009E+00  0.1009E+00
    -11.051  0.0000E+00  0.0000E+00  0.1010E+00  0.1010E+00
    -10.855  0.0000E+00  0.0000E+00  0.1010E+00  0.1010E+00
    -10.658  0.0000E+00  0.0000E+00  0.1010E+00  0.1010E+00
    -10.462  0.0000E+00  0.0000E+00  0.1010E+00  0.1010E+00
    -10.265  0.0000E+00  0.0000E+00  0.1010E+00  0.1010E+00
    -10.069  0.0000E+00  0.0000E+00  0.1010E+00  0.1010E+00
     -9.872  0.0000E+00  0.0000E+00  0.1010E+00  0.1010E+00
     -9.676  0.0000E+00  0.0000E+00  0.1010E+00  0.1010E+00
     -9.479  0.0000E+00  0.0000E+00  0.1010E+00  0.1010E+00
     -9.283  0.0000E+00  0.0000E+00  0.1010E+00  0.1010E+00
     -9.086  0.0000E+00  0.0000E+00  0.1010E+00  0.1010E+00
     -8.890  0.0000E+00  0.0000E+00  0.1010E+00  0.1010E+00
     -8.693  0.0000E+00  0.0000E+00  0.1010E+00  0.1010E+00
     -8.497  0.0000E+00  0.0000E+00  0.1010E+00  0.1010E+00
     -8.300  0.0000E+00  0.0000E+00  0.1010E+00  0.1010E+00
     -8.104  0.0000E+00  0.0000E+00  0.1010E+00  0.1010E+00
     -7.907  0.0000E+00  0.0000E+00  0.1010E+00  0.1010E+00
     -7.711  0.0000E+00  0.0000E+00  0.1010E+00  0.1010E+00
     -7.514  0.0000E+00  0.0000E+00  0.1010E+00  0.1010E+00
     -7.318  0.0000E+00  0.0000E+00  0.1010E+00  0.1010E+00
     -7.121  0.0000E+00  0.0000E+00  0.1010E+00  0.1010E+00
     -6.925  0.1315E-01  0.1315E-01  0.1015E+00  0.1015E+00
     -6.729  0.5694E-02  0.5694E-02  0.1040E+00  0.1040E+00
     -6.532  0.5604E-02  0.5604E-02  0.1051E+00  0.1051E+00
     -6.336  0.5605E-02  0.5605E-02  0.1062E+00  0.1062E+00
     -6.139  0.4918E-02  0.4918E-02  0.1072E+00  0.1072E+00
     -5.943  0.4917E-02  0.4917E-02  0.1082E+00  0.1082E+00
     -5.746  0.4917E-02  0.4917E-02  0.1092E+00  0.1092E+00
     -5.550  0.0000E+00  0.0000E+00  0.1111E+00  0.1111E+00
     -5.353  0.0000E+00  0.0000E+00  0.1111E+00  0.1111E+00
     -5.157  0.5426E-02  0.5426E-02  0.1113E+00  0.1113E+00
     -4.960  0.5538E-02  0.5538E-02  0.1132E+00  0.1132E+00
     -4.764  0.5537E-02  0.5537E-02  0.1143E+00  0.1143E+00
     -4.567  0.5638E-02  0.5638E-02  0.1154E+00  0.1154E+00
     -4.371  0.6075E-02  0.6075E-02  0.1166E+00  0.1166E+00
     -4.174  0.6077E-02  0.6077E-02  0.1178E+00  0.1178E+00
     -3.978  0.1018E-01  0.1018E-01  0.1194E+00  0.1194E+00
     -3.781  0.2941E-02  0.2941E-02  0.1212E+00  0.1212E+00
     -3.585  0.0000E+00  0.0000E+00  0.1212E+00  0.1212E+00
     -3.388  0.3206E-02  0.3206E-02  0.1214E+00  0.1214E+00
     -3.192  0.1240E-01  0.1240E-01  0.1228E+00  0.1228E+00
     -2.995  0.2483E-01  0.2483E-01  0.1262E+00  0.1262E+00
     -2.799  0.2660E-01  0.2660E-01  0.1317E+00  0.1317E+00
     -2.602  0.3624E-01  0.3624E-01  0.1377E+00  0.1377E+00
     -2.406  0.2820E-01  0.2820E-01  0.1455E+00  0.1455E+00
     -2.209  0.2039E-01  0.2039E-01  0.1500E+00  0.1500E+00
     -2.013  0.2583E-01  0.2583E-01  0.1544E+00  0.1544E+00
     -1.816  0.1702E-01  0.1702E-01  0.1611E+00  0.1611E+00
     -1.620  0.0000E+00  0.0000E+00  0.1616E+00  0.1616E+00
     -1.423  0.0000E+00  0.0000E+00  0.1616E+00  0.1616E+00
     -1.227  0.0000E+00  0.0000E+00  0.1616E+00  0.1616E+00
     -1.030  0.1154E-01  0.1154E-01  0.1618E+00  0.1618E+00
     -0.834  0.1881E-01  0.1881E-01  0.1693E+00  0.1693E+00
     -0.637  0.2305E-01  0.2305E-01  0.1728E+00  0.1728E+00
     -0.441  0.2912E-01  0.2912E-01  0.1789E+00  0.1789E+00
     -0.244  0.1937E-01  0.1937E-01  0.1828E+00  0.1828E+00
     -0.048  0.5368E-01  0.5368E-01  0.1901E+00  0.1901E+00
      0.149  0.3777E-01  0.3777E-01  0.2001E+00  0.2001E+00
      0.345  0.6528E-01  0.6528E-01  0.2109E+00  0.2109E+00
      0.541  0.8998E-02  0.8998E-02  0.2157E+00  0.2157E+00
      0.738  0.1902E-01  0.1902E-01  0.2204E+00  0.2204E+00
      0.934  0.3335E-01  0.3335E-01  0.2240E+00  0.2240E+00
      1.131  0.4970E-01  0.4970E-01  0.2343E+00  0.2343E+00
      1.327  0.4704E-01  0.4704E-01  0.2443E+00  0.2443E+00
      1.524  0.1448E-01  0.1448E-01  0.2489E+00  0.2489E+00
      1.720  0.5571E-01  0.5570E-01  0.2567E+00  0.2567E+00
      1.917  0.8885E-02  0.8885E-02  0.2621E+00  0.2621E+00
      2.113  0.2925E-02  0.2925E-02  0.2627E+00  0.2627E+00
      2.310  0.3383E-01  0.3383E-01  0.2659E+00  0.2659E+00
      2.506  0.1129E-01  0.1129E-01  0.2717E+00  0.2717E+00
      2.703  0.1208E+00  0.1208E+00  0.2771E+00  0.2771E+00
      2.899  0.0000E+00  0.0000E+00  0.2828E+00  0.2828E+00
      3.096  0.0000E+00  0.0000E+00  0.2828E+00  0.2828E+00
      3.292  0.0000E+00  0.0000E+00  0.2828E+00  0.2828E+00
      3.489  0.0000E+00  0.0000E+00  0.2828E+00  0.2828E+00
      3.685  0.0000E+00  0.0000E+00  0.2828E+00  0.2828E+00
      3.882  0.0000E+00  0.0000E+00  0.2828E+00  0.2828E+00
      4.078  0.0000E+00  0.0000E+00  0.2828E+00  0.2828E+00
      4.275  0.0000E+00  0.0000E+00  0.2828E+00  0.2828E+00
      4.471  0.0000E+00  0.0000E+00  0.2828E+00  0.2828E+00
      4.668  0.0000E+00  0.0000E+00  0.2828E+00  0.2828E+00
      4.864  0.0000E+00  0.0000E+00  0.2828E+00  0.2828E+00
      5.061  0.0000E+00  0.0000E+00  0.2828E+00  0.2828E+00
      5.257  0.0000E+00  0.0000E+00  0.2828E+00  0.2828E+00
      5.454  0.0000E+00  0.0000E+00  0.2828E+00  0.2828E+00
      5.650  0.0000E+00  0.0000E+00  0.2828E+00  0.2828E+00
      5.847  0.0000E+00  0.0000E+00  0.2828E+00  0.2828E+00
      6.043  0.0000E+00  0.0000E+00  0.2828E+00  0.2828E+00
      6.240  0.0000E+00  0.0000E+00  0.2828E+00  0.2828E+00
      6.436  0.0000E+00  0.0000E+00  0.2828E+00  0.2828E+00
      6.633  0.0000E+00  0.0000E+00  0.2828E+00  0.2828E+00
      6.829  0.0000E+00  0.0000E+00  0.2828E+00  0.2828E+00
      7.026  0.0000E+00  0.0000E+00  0.2828E+00  0.2828E+00
      7.222  0.0000E+00  0.0000E+00  0.2828E+00  0.2828E+00
      7.419  0.0000E+00  0.0000E+00  0.2828E+00  0.2828E+00
      7.615  0.0000E+00  0.0000E+00  0.2828E+00  0.2828E+00
      7.812  0.0000E+00  0.0000E+00  0.2828E+00  0.2828E+00
      8.008  0.0000E+00  0.0000E+00  0.2828E+00  0.2828E+00
      8.204  0.0000E+00  0.0000E+00  0.2828E+00  0.2828E+00
      8.401  0.0000E+00  0.0000E+00  0.2828E+00  0.2828E+00
      8.597  0.2588E-03  0.2588E-03  0.2828E+00  0.2828E+00
      8.794  0.1250E-02  0.1250E-02  0.2830E+00  0.2830E+00
      8.990  0.1901E-02  0.1901E-02  0.2833E+00  0.2833E+00
      9.187  0.7235E-02  0.7235E-02  0.2840E+00  0.2840E+00
      9.383  0.1761E-01  0.1761E-01  0.2863E+00  0.2863E+00
      9.580  0.2459E-01  0.2459E-01  0.2914E+00  0.2914E+00
      9.776  0.2375E-01  0.2375E-01  0.2955E+00  0.2955E+00
      9.973  0.2014E-01  0.2014E-01  0.3018E+00  0.3018E+00
     10.169  0.3239E-01  0.3239E-01  0.3055E+00  0.3055E+00
     10.366  0.3067E-01  0.3067E-01  0.3112E+00  0.3112E+00
     10.562  0.2197E-01  0.2197E-01  0.3177E+00  0.3177E+00
     10.759  0.2087E-01  0.2087E-01  0.3217E+00  0.3217E+00
     10.955  0.1849E-01  0.1849E-01  0.3254E+00  0.3254E+00
     11.152  0.2590E-01  0.2590E-01  0.3299E+00  0.3299E+00
     11.348  0.2053E-01  0.2053E-01  0.3343E+00  0.3343E+00
     11.545  0.3135E-01  0.3135E-01  0.3396E+00  0.3396E+00
     11.741  0.1962E-01  0.1962E-01  0.3439E+00  0.3439E+00
     11.938  0.1940E-01  0.1940E-01  0.3477E+00  0.3477E+00
     12.134  0.2338E-01  0.2338E-01  0.3518E+00  0.3518E+00
     12.331  0.2052E-01  0.2055E-01  0.3563E+00  0.3563E+00
     12.527  0.9525E-02  0.9517E-02  0.3597E+00  0.3597E+00
     12.724  0.7431E-02  0.7449E-02  0.3613E+00  0.3613E+00
     12.920  0.6563E-02  0.6671E-02  0.3627E+00  0.3627E+00
     13.117  0.2423E-02  0.2399E-02  0.3635E+00  0.3635E+00
     13.313  0.3395E-04  0.3373E-04  0.3636E+00  0.3636E+00
     13.510  0.0000E+00  0.0000E+00  0.3636E+00  0.3636E+00
     13.706  0.0000E+00  0.0000E+00  0.3636E+00  0.3636E+00
     13.903  0.0000E+00  0.0000E+00  0.3636E+00  0.3636E+00
     14.099  0.0000E+00  0.0000E+00  0.3636E+00  0.3636E+00
     14.296  0.0000E+00  0.0000E+00  0.3636E+00  0.3636E+00
     14.492  0.0000E+00  0.0000E+00  0.3636E+00  0.3636E+00
     14.689  0.0000E+00  0.0000E+00  0.3636E+00  0.3636E+00
     14.885  0.0000E+00  0.0000E+00  0.3636E+00  0.3636E+00
     15.082  0.0000E+00  0.0000E+00  0.3636E+00  0.3636E+00
     15.278  0.0000E+00  0.0000E+00  0.3636E+00  0.3636E+00
     15.475  0.0000E+00  0.0000E+00  0.3636E+00  0.3636E+00
     15.671  0.0000E+00  0.0000E+00  0.3636E+00  0.3636E+00
     15.867  0.0000E+00  0.0000E+00  0.3636E+00  0.3636E+00
     16.064  0.0000E+00  0.0000E+00  0.3636E+00  0.3636E+00
     16.06396800    -42.88213593  301      2.80109461      1.00000000
    -42.882  0.0000E+00  0.0000E+00  0.0000E+00  0.0000E+00  0.0000E+00  0.0000E+00  0.0000E+00  0.0000E+00  0.0000E+00  0.0000E+00  0.0000E+00  0.0000E+00  0.0000E+00  0.0000E+00  0.0000E+00  0.0000E+00  0.0000E+00  0.0000E+00
    -42.686  0.0000E+00  0.0000E+00  0.0000E+00  0.0000E+00  0.0000E+00  0.0000E+00  0.0000E+00  0.0000E+00  0.0000E+00  0.0000E+00  0.0000E+00  0.0000E+00  0.0000E+00  0.0000E+00  0.0000E+00  0.0000E+00  0.0000E+00  0.0000E+00
    -42.489  0.0000E+00  0.0000E+00  0.0000E+00  0.0000E+00  0.0000E+00  0.0000E+00  0.0000E+00  0.0000E+00  0.0000E+00  0.0000E+00  0.0000E+00  0.0000E+00  0.0000E+00  0.0000E+00  0.0000E+00  0.0000E+00  0.0000E+00  0.0000E+00
    -42.293  0.0000E+00  0.0000E+00  0.0000E+00  0.0000E+00  0.0000E+00  0.0000E+00  0.0000E+00  0.0000E+00  0.0000E+00  0.0000E+00  0.0000E+00  0.0000E+00  0.0000E+00  0.0000E+00  0.0000E+00  0.0000E+00  0.0000E+00  0.0000E+00
    -42.096  0.0000E+00  0.0000E+00  0.0000E+00  0.0000E+00  0.0000E+00  0.0000E+00  0.0000E+00  0.0000E+00  0.0000E+00  0.0000E+00  0.0000E+00  0.0000E+00  0.0000E+00  0.0000E+00  0.0000E+00  0.0000E+00  0.0000E+00  0.0000E+00
    -41.900  0.0000E+00  0.0000E+00  0.0000E+00  0.0000E+00  0.0000E+00  0.0000E+00  0.0000E+00  0.0000E+00  0.0000E+00  0.0000E+00  0.0000E+00  0.0000E+00  0.0000E+00  0.0000E+00  0.0000E+00  0.0000E+00  0.0000E+00  0.0000E+00
    -41.703  0.0000E+00  0.0000E+00  0.0000E+00  0.0000E+00  0.0000E+00  0.0000E+00  0.0000E+00  0.0000E+00  0.0000E+00  0.0000E+00  0.0000E+00  0.0000E+00  0.0000E+00  0.0000E+00  0.0000E+00  0.0000E+00  0.0000E+00  0.0000E+00
    -41.507  0.0000E+00  0.0000E+00  0.0000E+00  0.0000E+00  0.0000E+00  0.0000E+00  0.0000E+00  0.0000E+00  0.0000E+00  0.0000E+00  0.0000E+00  0.0000E+00  0.0000E+00  0.0000E+00  0.0000E+00  0.0000E+00  0.0000E+00  0.0000E+00
    -41.310  0.0000E+00  0.0000E+00  0.0000E+00  0.0000E+00  0.0000E+00  0.0000E+00  0.0000E+00  0.0000E+00  0.0000E+00  0.0000E+00  0.0000E+00  0.0000E+00  0.0000E+00  0.0000E+00  0.0000E+00  0.0000E+00  0.0000E+00  0.0000E+00
    -41.114  0.0000E+00  0.0000E+00  0.0000E+00  0.0000E+00  0.0000E+00  0.0000E+00  0.0000E+00  0.0000E+00  0.0000E+00  0.0000E+00  0.0000E+00  0.0000E+00  0.0000E+00  0.0000E+00  0.0000E+00  0.0000E+00  0.0000E+00  0.0000E+00
    -40.917  0.0000E+00  0.0000E+00  0.0000E+00  0.0000E+00  0.0000E+00  0.0000E+00  0.0000E+00  0.0000E+00  0.0000E+00  0.0000E+00  0.0000E+00  0.0000E+00  0.0000E+00  0.0000E+00  0.0000E+00  0.0000E+00  0.0000E+00  0.0000E+00
    -40.721  0.0000E+00  0.0000E+00  0.0000E+00  0.0000E+00  0.0000E+00  0.0000E+00  0.0000E+00  0.0000E+00  0.0000E+00  0.0000E+00  0.0000E+00  0.0000E+00  0.0000E+00  0.0000E+00  0.0000E+00  0.0000E+00  0.0000E+00  0.0000E+00
    -40.524  0.0000E+00  0.0000E+00  0.0000E+00  0.0000E+00  0.0000E+00  0.0000E+00  0.0000E+00  0.0000E+00  0.0000E+00  0.0000E+00  0.0000E+00  0.0000E+00  0.0000E+00  0.0000E+00  0.0000E+00  0.0000E+00  0.0000E+00  0.0000E+00
    -40.328  0.0000E+00  0.0000E+00  0.0000E+00  0.0000E+00  0.0000E+00  0.0000E+00  0.0000E+00  0.0000E+00  0.0000E+00  0.0000E+00  0.0000E+00  0.0000E+00  0.0000E+00  0.0000E+00  0.0000E+00  0.0000E+00  0.0000E+00  0.0000E+00
    -40.131  0.0000E+00  0.0000E+00  0.0000E+00  0.0000E+00  0.0000E+00  0.0000E+00  0.0000E+00  0.0000E+00  0.0000E+00  0.0000E+00  0.0000E+00  0.0000E+00  0.0000E+00  0.0000E+00  0.0000E+00  0.0000E+00  0.0000E+00  0.0000E+00
    -39.935  0.0000E+00  0.0000E+00  0.0000E+00  0.0000E+00  0.0000E+00  0.0000E+00  0.0000E+00  0.0000E+00  0.0000E+00  0.0000E+00  0.0000E+00  0.0000E+00  0.0000E+00  0.0000E+00  0.0000E+00  0.0000E+00  0.0000E+00  0.0000E+00
    -39.738  0.0000E+00  0.0000E+00  0.0000E+00  0.0000E+00  0.0000E+00  0.0000E+00  0.0000E+00  0.0000E+00  0.0000E+00  0.0000E+00  0.0000E+00  0.0000E+00  0.0000E+00  0.0000E+00  0.0000E+00  0.0000E+00  0.0000E+00  0.0000E+00
    -39.542  0.0000E+00  0.0000E+00  0.0000E+00  0.0000E+00  0.0000E+00  0.0000E+00  0.0000E+00  0.0000E+00  0.0000E+00  0.0000E+00  0.0000E+00  0.0000E+00  0.0000E+00  0.0000E+00  0.0000E+00  0.0000E+00  0.0000E+00  0.0000E+00
    -39.345  0.0000E+00  0.0000E+00  0.0000E+00  0.0000E+00  0.0000E+00  0.0000E+00  0.0000E+00  0.0000E+00  0.0000E+00  0.0000E+00  0.0000E+00  0.0000E+00  0.0000E+00  0.0000E+00  0.0000E+00  0.0000E+00  0.0000E+00  0.0000E+00
    -39.149  0.0000E+00  0.0000E+00  0.0000E+00  0.0000E+00  0.0000E+00  0.0000E+00  0.0000E+00  0.0000E+00  0.0000E+00  0.0000E+00  0.0000E+00  0.0000E+00  0.0000E+00  0.0000E+00  0.0000E+00  0.0000E+00  0.0000E+00  0.0000E+00
    -38.952  0.0000E+00  0.0000E+00  0.0000E+00  0.0000E+00  0.0000E+00  0.0000E+00  0.0000E+00  0.0000E+00  0.0000E+00  0.0000E+00  0.0000E+00  0.0000E+00  0.0000E+00  0.0000E+00  0.0000E+00  0.0000E+00  0.0000E+00  0.0000E+00
    -38.756  0.0000E+00  0.0000E+00  0.0000E+00  0.0000E+00  0.0000E+00  0.0000E+00  0.0000E+00  0.0000E+00  0.0000E+00  0.0000E+00  0.0000E+00  0.0000E+00  0.0000E+00  0.0000E+00  0.0000E+00  0.0000E+00  0.0000E+00  0.0000E+00
    -38.559  0.0000E+00  0.0000E+00  0.0000E+00  0.0000E+00  0.0000E+00  0.0000E+00  0.0000E+00  0.0000E+00  0.0000E+00  0.0000E+00  0.0000E+00  0.0000E+00  0.0000E+00  0.0000E+00  0.0000E+00  0.0000E+00  0.0000E+00  0.0000E+00
    -38.363  0.0000E+00  0.0000E+00  0.0000E+00  0.0000E+00  0.0000E+00  0.0000E+00  0.0000E+00  0.0000E+00  0.0000E+00  0.0000E+00  0.0000E+00  0.0000E+00  0.0000E+00  0.0000E+00  0.0000E+00  0.0000E+00  0.0000E+00  0.0000E+00
    -38.166  0.0000E+00  0.0000E+00  0.0000E+00  0.0000E+00  0.0000E+00  0.0000E+00  0.0000E+00  0.0000E+00  0.0000E+00  0.0000E+00  0.0000E+00  0.0000E+00  0.0000E+00  0.0000E+00  0.0000E+00  0.0000E+00  0.0000E+00  0.0000E+00
    -37.970  0.0000E+00  0.0000E+00  0.0000E+00  0.0000E+00  0.0000E+00  0.0000E+00  0.0000E+00  0.0000E+00  0.0000E+00  0.0000E+00  0.0000E+00  0.0000E+00  0.0000E+00  0.0000E+00  0.0000E+00  0.0000E+00  0.0000E+00  0.0000E+00
    -37.773  0.0000E+00  0.0000E+00  0.0000E+00  0.0000E+00  0.0000E+00  0.0000E+00  0.0000E+00  0.0000E+00  0.0000E+00  0.0000E+00  0.0000E+00  0.0000E+00  0.0000E+00  0.0000E+00  0.0000E+00  0.0000E+00  0.0000E+00  0.0000E+00
    -37.577  0.0000E+00  0.0000E+00  0.0000E+00  0.0000E+00  0.0000E+00  0.0000E+00  0.0000E+00  0.0000E+00  0.0000E+00  0.0000E+00  0.0000E+00  0.0000E+00  0.0000E+00  0.0000E+00  0.0000E+00  0.0000E+00  0.0000E+00  0.0000E+00
    -37.380  0.0000E+00  0.0000E+00  0.0000E+00  0.0000E+00  0.0000E+00  0.0000E+00  0.0000E+00  0.0000E+00  0.0000E+00  0.0000E+00  0.0000E+00  0.0000E+00  0.0000E+00  0.0000E+00  0.0000E+00  0.0000E+00  0.0000E+00  0.0000E+00
    -37.184  0.0000E+00  0.0000E+00  0.0000E+00  0.0000E+00  0.0000E+00  0.0000E+00  0.0000E+00  0.0000E+00  0.0000E+00  0.0000E+00  0.0000E+00  0.0000E+00  0.0000E+00  0.0000E+00  0.0000E+00  0.0000E+00  0.0000E+00  0.0000E+00
    -36.988  0.0000E+00  0.0000E+00  0.0000E+00  0.0000E+00  0.0000E+00  0.0000E+00  0.0000E+00  0.0000E+00  0.0000E+00  0.0000E+00  0.0000E+00  0.0000E+00  0.0000E+00  0.0000E+00  0.0000E+00  0.0000E+00  0.0000E+00  0.0000E+00
    -36.791  0.0000E+00  0.0000E+00  0.0000E+00  0.0000E+00  0.0000E+00  0.0000E+00  0.0000E+00  0.0000E+00  0.0000E+00  0.0000E+00  0.0000E+00  0.0000E+00  0.0000E+00  0.0000E+00  0.0000E+00  0.0000E+00  0.0000E+00  0.0000E+00
    -36.595  0.0000E+00  0.0000E+00  0.0000E+00  0.0000E+00  0.0000E+00  0.0000E+00  0.0000E+00  0.0000E+00  0.0000E+00  0.0000E+00  0.0000E+00  0.0000E+00  0.0000E+00  0.0000E+00  0.0000E+00  0.0000E+00  0.0000E+00  0.0000E+00
    -36.398  0.0000E+00  0.0000E+00  0.0000E+00  0.0000E+00  0.0000E+00  0.0000E+00  0.0000E+00  0.0000E+00  0.0000E+00  0.0000E+00  0.0000E+00  0.0000E+00  0.0000E+00  0.0000E+00  0.0000E+00  0.0000E+00  0.0000E+00  0.0000E+00
    -36.202  0.0000E+00  0.0000E+00  0.0000E+00  0.0000E+00  0.0000E+00  0.0000E+00  0.0000E+00  0.0000E+00  0.0000E+00  0.0000E+00  0.0000E+00  0.0000E+00  0.0000E+00  0.0000E+00  0.0000E+00  0.0000E+00  0.0000E+00  0.0000E+00
    -36.005  0.0000E+00  0.0000E+00  0.0000E+00  0.0000E+00  0.0000E+00  0.0000E+00  0.0000E+00  0.0000E+00  0.0000E+00  0.0000E+00  0.0000E+00  0.0000E+00  0.0000E+00  0.0000E+00  0.0000E+00  0.0000E+00  0.0000E+00  0.0000E+00
    -35.809  0.0000E+00  0.0000E+00  0.0000E+00  0.0000E+00  0.0000E+00  0.0000E+00  0.0000E+00  0.0000E+00  0.0000E+00  0.0000E+00  0.0000E+00  0.0000E+00  0.0000E+00  0.0000E+00  0.0000E+00  0.0000E+00  0.0000E+00  0.0000E+00
    -35.612  0.0000E+00  0.0000E+00  0.0000E+00  0.0000E+00  0.0000E+00  0.0000E+00  0.0000E+00  0.0000E+00  0.0000E+00  0.0000E+00  0.0000E+00  0.0000E+00  0.0000E+00  0.0000E+00  0.0000E+00  0.0000E+00  0.0000E+00  0.0000E+00
    -35.416  0.0000E+00  0.0000E+00  0.0000E+00  0.0000E+00  0.0000E+00  0.0000E+00  0.0000E+00  0.0000E+00  0.0000E+00  0.0000E+00  0.0000E+00  0.0000E+00  0.0000E+00  0.0000E+00  0.0000E+00  0.0000E+00  0.0000E+00  0.0000E+00
    -35.219  0.0000E+00  0.0000E+00  0.0000E+00  0.0000E+00  0.0000E+00  0.0000E+00  0.0000E+00  0.0000E+00  0.0000E+00  0.0000E+00  0.0000E+00  0.0000E+00  0.0000E+00  0.0000E+00  0.0000E+00  0.0000E+00  0.0000E+00  0.0000E+00
    -35.023  0.0000E+00  0.0000E+00  0.0000E+00  0.0000E+00  0.0000E+00  0.0000E+00  0.0000E+00  0.0000E+00  0.0000E+00  0.0000E+00  0.0000E+00  0.0000E+00  0.0000E+00  0.0000E+00  0.0000E+00  0.0000E+00  0.0000E+00  0.0000E+00
    -34.826  0.0000E+00  0.0000E+00  0.0000E+00  0.0000E+00  0.0000E+00  0.0000E+00  0.0000E+00  0.0000E+00  0.0000E+00  0.0000E+00  0.0000E+00  0.0000E+00  0.0000E+00  0.0000E+00  0.0000E+00  0.0000E+00  0.0000E+00  0.0000E+00
    -34.630  0.0000E+00  0.0000E+00  0.0000E+00  0.0000E+00  0.0000E+00  0.0000E+00  0.0000E+00  0.0000E+00  0.0000E+00  0.0000E+00  0.0000E+00  0.0000E+00  0.0000E+00  0.0000E+00  0.0000E+00  0.0000E+00  0.0000E+00  0.0000E+00
    -34.433  0.0000E+00  0.0000E+00  0.0000E+00  0.0000E+00  0.0000E+00  0.0000E+00  0.0000E+00  0.0000E+00  0.0000E+00  0.0000E+00  0.0000E+00  0.0000E+00  0.0000E+00  0.0000E+00  0.0000E+00  0.0000E+00  0.0000E+00  0.0000E+00
    -34.237  0.0000E+00  0.0000E+00  0.0000E+00  0.0000E+00  0.0000E+00  0.0000E+00  0.0000E+00  0.0000E+00  0.0000E+00  0.0000E+00  0.0000E+00  0.0000E+00  0.0000E+00  0.0000E+00  0.0000E+00  0.0000E+00  0.0000E+00  0.0000E+00
    -34.040  0.0000E+00  0.0000E+00  0.0000E+00  0.0000E+00  0.0000E+00  0.0000E+00  0.0000E+00  0.0000E+00  0.0000E+00  0.0000E+00  0.0000E+00  0.0000E+00  0.0000E+00  0.0000E+00  0.0000E+00  0.0000E+00  0.0000E+00  0.0000E+00
    -33.844  0.0000E+00  0.0000E+00  0.0000E+00  0.0000E+00  0.0000E+00  0.0000E+00  0.0000E+00  0.0000E+00  0.0000E+00  0.0000E+00  0.0000E+00  0.0000E+00  0.0000E+00  0.0000E+00  0.0000E+00  0.0000E+00  0.0000E+00  0.0000E+00
    -33.647  0.0000E+00  0.0000E+00  0.0000E+00  0.0000E+00  0.0000E+00  0.0000E+00  0.0000E+00  0.0000E+00  0.0000E+00  0.0000E+00  0.0000E+00  0.0000E+00  0.0000E+00  0.0000E+00  0.0000E+00  0.0000E+00  0.0000E+00  0.0000E+00
    -33.451  0.0000E+00  0.0000E+00  0.0000E+00  0.0000E+00  0.0000E+00  0.0000E+00  0.0000E+00  0.0000E+00  0.0000E+00  0.0000E+00  0.0000E+00  0.0000E+00  0.0000E+00  0.0000E+00  0.0000E+00  0.0000E+00  0.0000E+00  0.0000E+00
    -33.254  0.0000E+00  0.0000E+00  0.0000E+00  0.0000E+00  0.0000E+00  0.0000E+00  0.0000E+00  0.0000E+00  0.0000E+00  0.0000E+00  0.0000E+00  0.0000E+00  0.0000E+00  0.0000E+00  0.0000E+00  0.0000E+00  0.0000E+00  0.0000E+00
    -33.058  0.0000E+00  0.0000E+00  0.0000E+00  0.0000E+00  0.0000E+00  0.0000E+00  0.0000E+00  0.0000E+00  0.0000E+00  0.0000E+00  0.0000E+00  0.0000E+00  0.0000E+00  0.0000E+00  0.0000E+00  0.0000E+00  0.0000E+00  0.0000E+00