   12   12   99    2
  0.9893771E+01  0.5330402E-09  0.5330402E-09  0.4748969E-09  0.5000000E-15
  1.000000000000000E-004
  CAR 
 unknown system                          
     56     64     36
 
  0.0000000E+00  0.0000000E+00  0.0000000E+00  0.2915452E-02
    1      -40.202767    -40.202768   1.000000   1.000000
    2      -40.181211    -40.181211   1.000000   1.000000
    3      -40.180083    -40.180083   1.000000   1.000000
    4      -40.179226    -40.179226   1.000000   1.000000
    5      -17.083870    -17.083870   1.000000   1.000000
    6      -16.412966    -16.412966   1.000000   1.000000
    7      -15.006754    -15.006755   1.000000   1.000000
    8      -14.981625    -14.981625   1.000000   1.000000
    9      -12.836140    -12.836143   1.000000   1.000000
   10      -11.249569    -11.249572   1.000000   1.000000
   11       -6.943310     -6.943311   1.000000   1.000000
   12       -3.788611     -3.788612   1.000000   1.000000
   13       -3.538146     -3.538147   1.000000   1.000000
   14       -2.965714     -2.965715   1.000000   1.000000
   15       -2.916853     -2.916854   1.000000   1.000000
   16       -1.759457     -1.759457   1.000000   1.000000
   17       -0.877444     -0.877444   1.000000   1.000000
   18       -0.835189     -0.835189   1.000000   1.000000
   19        0.036799      0.036798   1.000000   1.000000
   20        0.201647      0.201647   1.000000   1.000000
   21        0.406712      0.406712   1.000000   1.000000
   22        1.153620      1.153620   1.000000   1.000000
   23        1.164071      1.164070   1.000000   1.000000
   24        1.237668      1.237667   1.000000   1.000000
   25        1.411002      1.411002   1.000000   1.000000
   26        2.063447      2.063446   1.000000   1.000000
   27        2.074981      2.074980   1.000000   1.000000
   28        2.740537      2.740536   1.000000   1.000000
   29        8.469809      8.469807   0.000000   0.000000
   30        9.665716      9.665716   0.000000   0.000000
   31       10.014629     10.014629   0.000000   0.000000
   32       11.534117     11.534116   0.000000   0.000000
   33       11.626407     11.626406   0.000000   0.000000
   34       12.361926     12.361926   0.000000   0.000000
   35       12.449923     12.449923   0.000000   0.000000
   36       13.384600     13.384257   0.000000   0.000000
 
  0.1428571E+00  0.0000000E+00  0.0000000E+00  0.1166181E-01
    1      -40.201956    -40.201956   1.000000   1.000000
    2      -40.183422    -40.183422   1.000000   1.000000
    3      -40.179974    -40.179974   1.000000   1.000000
    4      -40.177784    -40.177784   1.000000   1.000000
    5      -17.063709    -17.063710   1.000000   1.000000
    6      -16.432260    -16.432260   1.000000   1.000000
    7      -15.011627    -15.011627   1.000000   1.000000
    8      -14.985332    -14.985332   1.000000   1.000000
    9      -12.839194    -12.839196   1.000000   1.000000
   10      -11.247686    -11.247690   1.000000   1.000000
   11       -6.946329     -6.946330   1.000000   1.000000
   12       -3.789342     -3.789343   1.000000   1.000000
   13       -3.504461     -3.504462   1.000000   1.000000
   14       -2.951005     -2.951006   1.000000   1.000000
   15       -2.877253     -2.877253   1.000000   1.000000
   16       -1.780148     -1.780148   1.000000   1.000000
   17       -0.971249     -0.971249   1.000000   1.000000
   18       -0.612718     -0.612718   1.000000   1.000000
   19        0.068503      0.068503   1.000000   1.000000
   20        0.238646      0.238645   1.000000   1.000000
   21        0.399162      0.399162   1.000000   1.000000
   22        0.963987      0.963986   1.000000   1.000000
   23        1.090561      1.090560   1.000000   1.000000
   24        1.230781      1.230781   1.000000   1.000000
   25        1.371604      1.371604   1.000000   1.000000
   26        2.012234      2.012232   1.000000   1.000000
   27        2.126715      2.126714   1.000000   1.000000
   28        2.735835      2.735834   1.000000   1.000000
   29        8.699991      8.699990   0.000000   0.000000
   30        9.680099      9.680099   0.000000   0.000000
   31       10.114003     10.114002   0.000000   0.000000
   32       11.387150     11.387149   0.000000   0.000000
   33       11.613162     11.613162   0.000000   0.000000
   34       12.081395     12.081395   0.000000   0.000000
   35       12.504229     12.504228   0.000000   0.000000
   36       12.959522     12.959535   0.000000   0.000000
 
  0.2857143E+00  0.2775558E-16  0.0000000E+00  0.1166181E-01
    1      -40.199683    -40.199683   1.000000   1.000000
    2      -40.187213    -40.187213   1.000000   1.000000
    3      -40.179581    -40.179581   1.000000   1.000000
    4      -40.176642    -40.176643   1.000000   1.000000
    5      -17.012421    -17.012421   1.000000   1.000000
    6      -16.481808    -16.481808   1.000000   1.000000
    7      -15.022923    -15.022923   1.000000   1.000000
    8      -14.994017    -14.994017   1.000000   1.000000
    9      -12.845556    -12.845558   1.000000   1.000000
   10      -11.244188    -11.244192   1.000000   1.000000
   11       -6.952258     -6.952260   1.000000   1.000000
   12       -3.803688     -3.803689   1.000000   1.000000
   13       -3.401721     -3.401722   1.000000   1.000000
   14       -3.030380     -3.030380   1.000000   1.000000
   15       -2.663577     -2.663577   1.000000   1.000000
   16       -1.843402     -1.843402   1.000000   1.000000
   17       -0.882324     -0.882324   1.000000   1.000000
   18       -0.363886     -0.363887   1.000000   1.000000
   19        0.056800      0.056800   1.000000   1.000000
   20        0.298703      0.298703   1.000000   1.000000
   21        0.418625      0.418625   1.000000   1.000000
   22        0.628140      0.628139   1.000000   1.000000
   23        0.925955      0.925954   1.000000   1.000000
   24        1.158944      1.158943   1.000000   1.000000
   25        1.292295      1.292295   1.000000   1.000000
   26        1.888301      1.888299   1.000000   1.000000
   27        2.249444      2.249443   1.000000   1.000000
   28        2.721732      2.721731   1.000000   1.000000
   29        9.241452      9.241451   0.000000   0.000000
   30        9.698104      9.698103   0.000000   0.000000
   31       10.362641     10.362640   0.000000   0.000000
   32       11.138386     11.138385   0.000000   0.000000
   33       11.418458     11.418458   0.000000   0.000000
   34       11.647668     11.647668   0.000000   0.000000
   35       12.183709     12.183709   0.000000   0.000000
   36       12.629295     12.629305   0.000000   0.000000
 
  0.4285714E+00  0.2775558E-16  0.0000000E+00  0.1166181E-01
    1      -40.196504    -40.196504   1.000000   1.000000
    2      -40.191133    -40.191133   1.000000   1.000000
    3      -40.179249    -40.179249   1.000000   1.000000
    4      -40.176147    -40.176147   1.000000   1.000000
    5      -16.962275    -16.962276   1.000000   1.000000
    6      -16.530711    -16.530711   1.000000   1.000000
    7      -15.031974    -15.031975   1.000000   1.000000
    8      -15.000798    -15.000798   1.000000   1.000000
    9      -12.850047    -12.850050   1.000000   1.000000
   10      -11.241899    -11.241903   1.000000   1.000000
   11       -6.955942     -6.955943   1.000000   1.000000
   12       -3.825241     -3.825241   1.000000   1.000000
   13       -3.265798     -3.265798   1.000000   1.000000
   14       -3.135506     -3.135507   1.000000   1.000000
   15       -2.436239     -2.436239   1.000000   1.000000
   16       -1.926960     -1.926960   1.000000   1.000000
   17       -0.685197     -0.685197   1.000000   1.000000
   18       -0.255084     -0.255085   1.000000   1.000000
   19        0.009372      0.009371   1.000000   1.000000
   20        0.204091      0.204091   1.000000   1.000000
   21        0.277063      0.277063   1.000000   1.000000
   22        0.612474      0.612473   1.000000   1.000000
   23        0.904332      0.904332   1.000000   1.000000
   24        1.063040      1.063040   1.000000   1.000000
   25        1.224159      1.224159   1.000000   1.000000
   26        1.769256      1.769255   1.000000   1.000000
   27        2.353985      2.353985   1.000000   1.000000
   28        2.705211      2.705210   1.000000   1.000000
   29        9.440448      9.440447   0.000000   0.000000
   30       10.114623     10.114622   0.000000   0.000000
   31       10.536099     10.536099   0.000000   0.000000
   32       10.902902     10.902902   0.000000   0.000000
   33       11.236725     11.236724   0.000000   0.000000
   34       11.413862     11.413862   0.000000   0.000000
   35       11.694410     11.694410   0.000000   0.000000
   36       12.373086     12.372952   0.000000   0.000000
 
  0.1428571E+00  0.1428571E+00  0.0000000E+00  0.5830904E-02
    1      -40.200295    -40.200295   1.000000   1.000000
    2      -40.186353    -40.186353   1.000000   1.000000
    3      -40.179859    -40.179859   1.000000   1.000000
    4      -40.176566    -40.176567   1.000000   1.000000
    5      -17.024644    -17.024644   1.000000   1.000000
    6      -16.474146    -16.474147   1.000000   1.000000
    7      -15.021620    -15.021620   1.000000   1.000000
    8      -14.985832    -14.985833   1.000000   1.000000
    9      -12.840178    -12.840180   1.000000   1.000000
   10      -11.245498    -11.245501   1.000000   1.000000
   11       -6.945859     -6.945860   1.000000   1.000000
   12       -3.816126     -3.816126   1.000000   1.000000
   13       -3.428431     -3.428432   1.000000   1.000000
   14       -2.987291     -2.987292   1.000000   1.000000
   15       -2.789310     -2.789311   1.000000   1.000000
   16       -1.832201     -1.832201   1.000000   1.000000
   17       -0.928397     -0.928397   1.000000   1.000000
   18       -0.316752     -0.316753   1.000000   1.000000
   19        0.167462      0.167462   1.000000   1.000000
   20        0.177401      0.177401   1.000000   1.000000
   21        0.419253      0.419253   1.000000   1.000000
   22        0.773083      0.773083   1.000000   1.000000
   23        0.828482      0.828481   1.000000   1.000000
   24        1.252712      1.252711   1.000000   1.000000
   25        1.278346      1.278345   1.000000   1.000000
   26        1.908847      1.908846   1.000000   1.000000
   27        2.239563      2.239562   1.000000   1.000000
   28        2.742017      2.742016   1.000000   1.000000
   29        9.069673      9.069672   0.000000   0.000000
   30        9.660631      9.660630   0.000000   0.000000
   31       10.252722     10.252722   0.000000   0.000000
   32       11.240363     11.240362   0.000000   0.000000
   33       11.444425     11.444424   0.000000   0.000000
   34       12.075698     12.075698   0.000000   0.000000
   35       12.081811     12.081811   0.000000   0.000000
   36       12.731305     12.731761   0.000000   0.000000
 
  0.2857143E+00  0.1428571E+00  0.0000000E+00  0.1166181E-01
    1      -40.197424    -40.197424   1.000000   1.000000
    2      -40.190028    -40.190028   1.000000   1.000000
    3      -40.179642    -40.179642   1.000000   1.000000
    4      -40.175921    -40.175921   1.000000   1.000000
    5      -16.972576    -16.972577   1.000000   1.000000
    6      -16.522518    -16.522518   1.000000   1.000000
    7      -15.051051    -15.051051   1.000000   1.000000
    8      -14.976297    -14.976297   1.000000   1.000000
    9      -12.846817    -12.846820   1.000000   1.000000
   10      -11.242615    -11.242619   1.000000   1.000000
   11       -6.951954     -6.951955   1.000000   1.000000
   12       -3.829932     -3.829933   1.000000   1.000000
   13       -3.321453     -3.321454   1.000000   1.000000
   14       -3.049020     -3.049021   1.000000   1.000000
   15       -2.580483     -2.580483   1.000000   1.000000
   16       -1.891685     -1.891685   1.000000   1.000000
   17       -0.741713     -0.741713   1.000000   1.000000
   18       -0.158878     -0.158878   1.000000   1.000000
   19        0.017602      0.017602   1.000000   1.000000
   20        0.109777      0.109777   1.000000   1.000000
   21        0.500558      0.500558   1.000000   1.000000
   22        0.541518      0.541518   1.000000   1.000000
   23        0.775996      0.775995   1.000000   1.000000
   24        1.124459      1.124458   1.000000   1.000000
   25        1.272448      1.272448   1.000000   1.000000
   26        1.780250      1.780249   1.000000   1.000000
   27        2.345488      2.345487   1.000000   1.000000
   28        2.730208      2.730207   1.000000   1.000000
   29        9.491483      9.491482   0.000000   0.000000
   30        9.725600      9.725599   0.000000   0.000000
   31       10.423326     10.423326   0.000000   0.000000
   32       11.019969     11.019968   0.000000   0.000000
   33       11.359231     11.359231   0.000000   0.000000
   34       11.554096     11.554095   0.000000   0.000000
   35       11.864093     11.864092   0.000000   0.000000
   36       12.401772     12.401750   0.000000   0.000000
 
  0.4285714E+00  0.1428571E+00  0.0000000E+00  0.1166181E-01
    1      -40.195130    -40.195130   1.000000   1.000000
    2      -40.192419    -40.192419   1.000000   1.000000
    3      -40.179643    -40.179643   1.000000   1.000000
    4      -40.175886    -40.175886   1.000000   1.000000
    5      -16.951493    -16.951493   1.000000   1.000000
    6      -16.536176    -16.536176   1.000000   1.000000
    7      -15.071506    -15.071506   1.000000   1.000000
    8      -14.970363    -14.970364   1.000000   1.000000
    9      -12.854317    -12.854319   1.000000   1.000000
   10      -11.240916    -11.240919   1.000000   1.000000
   11       -6.960875     -6.960876   1.000000   1.000000
   12       -3.823704     -3.823705   1.000000   1.000000
   13       -3.199240     -3.199241   1.000000   1.000000
   14       -3.144485     -3.144486   1.000000   1.000000
   15       -2.391039     -2.391039   1.000000   1.000000
   16       -1.934556     -1.934556   1.000000   1.000000
   17       -0.618677     -0.618678   1.000000   1.000000
   18       -0.342732     -0.342732   1.000000   1.000000
   19       -0.060148     -0.060148   1.000000   1.000000
   20        0.095974      0.095973   1.000000   1.000000
   21        0.404432      0.404431   1.000000   1.000000
   22        0.594762      0.594762   1.000000   1.000000
   23        0.900544      0.900543   1.000000   1.000000
   24        1.029452      1.029452   1.000000   1.000000
   25        1.264210      1.264209   1.000000   1.000000
   26        1.747305      1.747303   1.000000   1.000000
   27        2.358528      2.358527   1.000000   1.000000
   28        2.714461      2.714460   1.000000   1.000000
   29        9.500762      9.500761   0.000000   0.000000
   30       10.028349     10.028348   0.000000   0.000000
   31       10.578307     10.578307   0.000000   0.000000
   32       10.798333     10.798332   0.000000   0.000000
   33       11.042891     11.042890   0.000000   0.000000
   34       11.586664     11.586663   0.000000   0.000000
   35       11.884420     11.884420   0.000000   0.000000
   36       12.266150     12.266211   0.000000   0.000000
 
 -0.4285714E+00  0.1428571E+00  0.0000000E+00  0.1166181E-01
    1      -40.198053    -40.198053   1.000000   1.000000
    2      -40.188921    -40.188921   1.000000   1.000000
    3      -40.179935    -40.179935   1.000000   1.000000
    4      -40.176252    -40.176252   1.000000   1.000000
    5      -16.984538    -16.984539   1.000000   1.000000
    6      -16.497288    -16.497288   1.000000   1.000000
    7      -15.074024    -15.074024   1.000000   1.000000
    8      -14.965957    -14.965958   1.000000   1.000000
    9      -12.857611    -12.857613   1.000000   1.000000
   10      -11.241284    -11.241288   1.000000   1.000000
   11       -6.966123     -6.966124   1.000000   1.000000
   12       -3.792888     -3.792889   1.000000   1.000000
   13       -3.291400     -3.291401   1.000000   1.000000
   14       -3.074928     -3.074928   1.000000   1.000000
   15       -2.438336     -2.438336   1.000000   1.000000
   16       -1.888523     -1.888523   1.000000   1.000000
   17       -0.760402     -0.760402   1.000000   1.000000
   18       -0.452383     -0.452384   1.000000   1.000000
   19       -0.063434     -0.063435   1.000000   1.000000
   20        0.189980      0.189979   1.000000   1.000000
   21        0.418937      0.418936   1.000000   1.000000
   22        0.603715      0.603715   1.000000   1.000000
   23        0.964429      0.964428   1.000000   1.000000
   24        1.074941      1.074940   1.000000   1.000000
   25        1.300799      1.300798   1.000000   1.000000
   26        1.835969      1.835968   1.000000   1.000000
   27        2.266694      2.266693   1.000000   1.000000
   28        2.705557      2.705556   1.000000   1.000000
   29        9.511913      9.511912   0.000000   0.000000
   30        9.891575      9.891575   0.000000   0.000000
   31       10.494680     10.494680   0.000000   0.000000
   32       10.687189     10.687189   0.000000   0.000000
   33       11.274485     11.274484   0.000000   0.000000
   34       11.500445     11.500445   0.000000   0.000000
   35       12.308885     12.308883   0.000000   0.000000
   36       12.437033     12.436943   0.000000   0.000000
 
 -0.2857143E+00  0.1428571E+00  0.0000000E+00  0.1166181E-01
    1      -40.200682    -40.200682   1.000000   1.000000
    2      -40.184877    -40.184877   1.000000   1.000000
    3      -40.180544    -40.180544   1.000000   1.000000
    4      -40.176984    -40.176984   1.000000   1.000000
    5      -17.035890    -17.035890   1.000000   1.000000
    6      -16.446053    -16.446053   1.000000   1.000000
    7      -15.058925    -15.058925   1.000000   1.000000
    8      -14.964047    -14.964048   1.000000   1.000000
    9      -12.853689    -12.853691   1.000000   1.000000
   10      -11.243865    -11.243868   1.000000   1.000000
   11       -6.962736     -6.962737   1.000000   1.000000
   12       -3.760696     -3.760697   1.000000   1.000000
   13       -3.442143     -3.442144   1.000000   1.000000
   14       -2.975933     -2.975933   1.000000   1.000000
   15       -2.650684     -2.650684   1.000000   1.000000
   16       -1.797955     -1.797955   1.000000   1.000000
   17       -0.896176     -0.896177   1.000000   1.000000
   18       -0.637800     -0.637800   1.000000   1.000000
   19       -0.044975     -0.044975   1.000000   1.000000
   20        0.308228      0.308228   1.000000   1.000000
   21        0.441453      0.441453   1.000000   1.000000
   22        0.680492      0.680491   1.000000   1.000000
   23        1.069862      1.069861   1.000000   1.000000
   24        1.207517      1.207516   1.000000   1.000000
   25        1.354350      1.354350   1.000000   1.000000
   26        1.950069      1.950068   1.000000   1.000000
   27        2.144747      2.144746   1.000000   1.000000
   28        2.705296      2.705295   1.000000   1.000000
   29        9.111746      9.111745   0.000000   0.000000
   30        9.782342      9.782341   0.000000   0.000000
   31       10.294239     10.294239   0.000000   0.000000
   32       10.996554     10.996554   0.000000   0.000000
   33       11.597850     11.597849   0.000000   0.000000
   34       11.670315     11.670315   0.000000   0.000000
   35       12.316950     12.316951   0.000000   0.000000
   36       12.934838     12.937233   0.000000   0.000000
 
 -0.1428571E+00  0.1428571E+00  0.0000000E+00  0.5830904E-02
    1      -40.202075    -40.202075   1.000000   1.000000
    2      -40.181898    -40.181898   1.000000   1.000000
    3      -40.181283    -40.181283   1.000000   1.000000
    4      -40.177934    -40.177934   1.000000   1.000000
    5      -17.067938    -17.067938   1.000000   1.000000
    6      -16.420542    -16.420542   1.000000   1.000000
    7      -15.034297    -15.034297   1.000000   1.000000
    8      -14.969628    -14.969628   1.000000   1.000000
    9      -12.845268    -12.845271   1.000000   1.000000
   10      -11.247006    -11.247010   1.000000   1.000000
   11       -6.953577     -6.953578   1.000000   1.000000
   12       -3.758564     -3.758565   1.000000   1.000000
   13       -3.523844     -3.523844   1.000000   1.000000
   14       -2.928600     -2.928600   1.000000   1.000000
   15       -2.832967     -2.832967   1.000000   1.000000
   16       -1.758246     -1.758246   1.000000   1.000000
   17       -0.871207     -0.871207   1.000000   1.000000
   18       -0.817781     -0.817781   1.000000   1.000000
   19       -0.025205     -0.025205   1.000000   1.000000
   20        0.236560      0.236560   1.000000   1.000000
   21        0.466139      0.466139   1.000000   1.000000
   22        0.928866      0.928865   1.000000   1.000000
   23        1.163969      1.163968   1.000000   1.000000
   24        1.241881      1.241880   1.000000   1.000000
   25        1.388564      1.388563   1.000000   1.000000
   26        2.024711      2.024710   1.000000   1.000000
   27        2.084527      2.084526   1.000000   1.000000
   28        2.718028      2.718027   1.000000   1.000000
   29        8.716750      8.716749   0.000000   0.000000
   30        9.728118      9.728118   0.000000   0.000000
   31       10.121962     10.121962   0.000000   0.000000
   32       11.398647     11.398647   0.000000   0.000000
   33       11.632931     11.632931   0.000000   0.000000
   34       11.931042     11.931041   0.000000   0.000000
   35       12.377724     12.377724   0.000000   0.000000
   36       13.079375     13.079426   0.000000   0.000000
 
  0.2857143E+00  0.2857143E+00  0.0000000E+00  0.5830904E-02
    1      -40.194258    -40.194258   1.000000   1.000000
    2      -40.193193    -40.193193   1.000000   1.000000
    3      -40.180037    -40.180037   1.000000   1.000000
    4      -40.175611    -40.175611   1.000000   1.000000
    5      -16.947521    -16.947521   1.000000   1.000000
    6      -16.536835    -16.536835   1.000000   1.000000
    7      -15.093743    -15.093744   1.000000   1.000000
    8      -14.952989    -14.952990   1.000000   1.000000
    9      -12.856355    -12.856358   1.000000   1.000000
   10      -11.240422    -11.240425   1.000000   1.000000
   11       -6.963050     -6.963051   1.000000   1.000000
   12       -3.824334     -3.824335   1.000000   1.000000
   13       -3.213555     -3.213556   1.000000   1.000000
   14       -3.067772     -3.067772   1.000000   1.000000
   15       -2.433829     -2.433830   1.000000   1.000000
   16       -1.911671     -1.911672   1.000000   1.000000
   17       -0.596424     -0.596424   1.000000   1.000000
   18       -0.371864     -0.371865   1.000000   1.000000
   19       -0.168059     -0.168059   1.000000   1.000000
   20        0.235121      0.235120   1.000000   1.000000
   21        0.286431      0.286431   1.000000   1.000000
   22        0.739667      0.739667   1.000000   1.000000
   23        0.761252      0.761251   1.000000   1.000000
   24        1.040100      1.040099   1.000000   1.000000
   25        1.310269      1.310268   1.000000   1.000000
   26        1.733974      1.733972   1.000000   1.000000
   27        2.358612      2.358611   1.000000   1.000000
   28        2.733012      2.733011   1.000000   1.000000
   29        9.668594      9.668593   0.000000   0.000000
   30        9.697906      9.697906   0.000000   0.000000
   31       10.514017     10.514017   0.000000   0.000000
   32       10.755845     10.755845   0.000000   0.000000
   33       11.092969     11.092968   0.000000   0.000000
   34       11.812164     11.812163   0.000000   0.000000
   35       12.004482     12.004482   0.000000   0.000000
   36       12.140487     12.140486   0.000000   0.000000
 
  0.4285714E+00  0.2857143E+00  0.0000000E+00  0.1166181E-01
    1      -40.196242    -40.196243   1.000000   1.000000
    2      -40.190491    -40.190491   1.000000   1.000000
    3      -40.180667    -40.180667   1.000000   1.000000
    4      -40.175724    -40.175724   1.000000   1.000000
    5      -16.961969    -16.961969   1.000000   1.000000
    6      -16.507668    -16.507668   1.000000   1.000000
    7      -15.120316    -15.120316   1.000000   1.000000
    8      -14.939967    -14.939968   1.000000   1.000000
    9      -12.867327    -12.867330   1.000000   1.000000
   10      -11.238957    -11.238961   1.000000   1.000000
   11       -6.976725     -6.976726   1.000000   1.000000
   12       -3.797350     -3.797350   1.000000   1.000000
   13       -3.146455     -3.146455   1.000000   1.000000
   14       -3.091084     -3.091084   1.000000   1.000000
   15       -2.322221     -2.322221   1.000000   1.000000
   16       -1.897440     -1.897440   1.000000   1.000000
   17       -0.658479     -0.658479   1.000000   1.000000
   18       -0.508392     -0.508392   1.000000   1.000000
   19       -0.261263     -0.261263   1.000000   1.000000
   20        0.083289      0.083288   1.000000   1.000000
   21        0.363551      0.363551   1.000000   1.000000
   22        0.764373      0.764373   1.000000   1.000000
   23        0.937660      0.937659   1.000000   1.000000
   24        0.992009      0.992008   1.000000   1.000000
   25        1.347060      1.347060   1.000000   1.000000
   26        1.786406      1.786405   1.000000   1.000000
   27        2.274875      2.274874   1.000000   1.000000
   28        2.724271      2.724270   1.000000   1.000000
   29        9.676784      9.676784   0.000000   0.000000
   30        9.896930      9.896930   0.000000   0.000000
   31       10.332793     10.332792   0.000000   0.000000
   32       10.703439     10.703439   0.000000   0.000000
   33       11.127928     11.127928   0.000000   0.000000
   34       11.589666     11.589665   0.000000   0.000000
   35       12.161931     12.161929   0.000000   0.000000
   36       12.416540     12.416546   0.000000   0.000000
 
 -0.4285714E+00  0.2857143E+00  0.0000000E+00  0.1166181E-01
    1      -40.198754    -40.198754   1.000000   1.000000
    2      -40.186651    -40.186651   1.000000   1.000000
    3      -40.181610    -40.181610   1.000000   1.000000
    4      -40.176110    -40.176110   1.000000   1.000000
    5      -16.999597    -16.999598   1.000000   1.000000
    6      -16.462475    -16.462476   1.000000   1.000000
    7      -15.121384    -15.121385   1.000000   1.000000
    8      -14.936424    -14.936425   1.000000   1.000000
    9      -12.871612    -12.871615   1.000000   1.000000
   10      -11.239435    -11.239439   1.000000   1.000000
   11       -6.981912     -6.981913   1.000000   1.000000
   12       -3.769527     -3.769528   1.000000   1.000000
   13       -3.270568     -3.270569   1.000000   1.000000
   14       -2.990660     -2.990660   1.000000   1.000000
   15       -2.373017     -2.373017   1.000000   1.000000
   16       -1.847693     -1.847693   1.000000   1.000000
   17       -0.783322     -0.783322   1.000000   1.000000
   18       -0.627892     -0.627893   1.000000   1.000000
   19       -0.158256     -0.158257   1.000000   1.000000
   20        0.048275      0.048275   1.000000   1.000000
   21        0.317108      0.317108   1.000000   1.000000
   22        0.765985      0.765984   1.000000   1.000000
   23        1.016748      1.016747   1.000000   1.000000
   24        1.161952      1.161951   1.000000   1.000000
   25        1.360544      1.360544   1.000000   1.000000
   26        1.863592      1.863591   1.000000   1.000000
   27        2.163899      2.163899   1.000000   1.000000
   28        2.703292      2.703291   1.000000   1.000000
   29        9.636932      9.636931   0.000000   0.000000
   30        9.971614      9.971613   0.000000   0.000000
   31       10.350016     10.350016   0.000000   0.000000
   32       10.555272     10.555272   0.000000   0.000000
   33       11.372459     11.372458   0.000000   0.000000
   34       11.571082     11.571081   0.000000   0.000000
   35       11.955698     11.955697   0.000000   0.000000
   36       12.928765     12.934644   0.000000   0.000000
 
 -0.2857143E+00  0.2857143E+00  0.0000000E+00  0.5830904E-02
    1      -40.200317    -40.200317   1.000000   1.000000
    2      -40.183619    -40.183619   1.000000   1.000000
    3      -40.182539    -40.182540   1.000000   1.000000
    4      -40.176652    -40.176652   1.000000   1.000000
    5      -17.030279    -17.030279   1.000000   1.000000
    6      -16.437284    -16.437285   1.000000   1.000000
    7      -15.097693    -15.097693   1.000000   1.000000
    8      -14.943534    -14.943535   1.000000   1.000000
    9      -12.865538    -12.865541   1.000000   1.000000
   10      -11.241689    -11.241692   1.000000   1.000000
   11       -6.975479     -6.975480   1.000000   1.000000
   12       -3.751475     -3.751476   1.000000   1.000000
   13       -3.389990     -3.389990   1.000000   1.000000
   14       -2.946991     -2.946991   1.000000   1.000000
   15       -2.532382     -2.532383   1.000000   1.000000
   16       -1.792987     -1.792987   1.000000   1.000000
   17       -0.842933     -0.842933   1.000000   1.000000
   18       -0.739348     -0.739348   1.000000   1.000000
   19       -0.111384     -0.111385   1.000000   1.000000
   20        0.261799      0.261799   1.000000   1.000000
   21        0.290392      0.290391   1.000000   1.000000
   22        0.719332      0.719332   1.000000   1.000000
   23        1.099879      1.099878   1.000000   1.000000
   24        1.307855      1.307854   1.000000   1.000000
   25        1.312448      1.312447   1.000000   1.000000
   26        1.930133      1.930132   1.000000   1.000000
   27        2.106816      2.106815   1.000000   1.000000
   28        2.693392      2.693391   1.000000   1.000000
   29        9.293723      9.293722   0.000000   0.000000
   30        9.916366      9.916365   0.000000   0.000000