 running on   24 total cores
 distrk:  each k-point on   24 cores,    1 groups
 distr:  one band on    6 cores,    4 groups
 using from now: INCAR     
 vasp.5.4.4.18Apr17-6-g9f103f2a35 (build Aug 12 2020 11:57:02) complex          
  
 POSCAR found type information on POSCAR  Li P  N  O 
 POSCAR found :  4 types and      12 ions
 scaLAPACK will be used
 LDA part: xc-table for Pade appr. of Perdew
 generate k-points for:    7    7    7
 POSCAR, INCAR and KPOINTS ok, starting setup
 FFT: planning ...
 WAVECAR not read
 entering main loop
       N       E                     dE             d eps       ncg     rms          rms(c)
DAV:   1     0.438753800033E+03    0.43875E+03   -0.28350E+04  9224   0.163E+03
DAV:   2    -0.441707041232E+02   -0.48292E+03   -0.46750E+03 11128   0.404E+02
DAV:   3    -0.834680156755E+02   -0.39297E+02   -0.39166E+02 13388   0.110E+02
DAV:   4    -0.870029268788E+02   -0.35349E+01   -0.35260E+01 15800   0.262E+01
DAV:   5    -0.872683528818E+02   -0.26543E+00   -0.26540E+00 12936   0.510E+00    0.292E+01
RMM:   6    -0.779106253493E+02    0.93577E+01   -0.41790E+01  9230   0.260E+01    0.117E+01
RMM:   7    -0.776770915065E+02    0.23353E+00   -0.23674E+00 11958   0.611E+00    0.550E+00
RMM:   8    -0.776748316206E+02    0.22599E-02   -0.31417E-01 11239   0.320E+00    0.102E+00
RMM:   9    -0.776852030591E+02   -0.10371E-01   -0.11222E-01 12976   0.128E+00    0.273E-01
RMM:  10    -0.776928955187E+02   -0.76925E-02   -0.52617E-02 13526   0.747E-01    0.196E-01
RMM:  11    -0.776944465565E+02   -0.15510E-02   -0.14876E-02 13936   0.410E-01    0.943E-02
RMM:  12    -0.776950167295E+02   -0.57017E-03   -0.52903E-03 13969   0.244E-01    0.681E-02
RMM:  13    -0.776951160036E+02   -0.99274E-04   -0.19027E-03 14166   0.146E-01    0.129E-02
RMM:  14    -0.776951825609E+02   -0.66557E-04   -0.67521E-04 12395   0.831E-02    0.104E-02
RMM:  15    -0.776951898004E+02   -0.72395E-05   -0.12602E-04 10459   0.468E-02    0.593E-03
RMM:  16    -0.776951934441E+02   -0.36436E-05   -0.27248E-05  7658   0.346E-02
   1 F= -.77695193E+02 E0= -.77695193E+02  d E =-.776952E+02  mag=     0.0000
 curvature:   0.00 expect dE= 0.000E+00 dE for cont linesearch  0.000E+00
 trial: gam= 0.00000 g(F)=  0.194E-02 g(S)=  0.286E-02 ort = 0.000E+00 (trialstep = 0.100E+01)
 search vector abs. value=  0.480E-02
 bond charge predicted
       N       E                     dE             d eps       ncg     rms          rms(c)
DAV:   1    -0.777046149665E+02   -0.94252E-02   -0.54420E-01 11568   0.442E+00    0.679E-01
RMM:   2    -0.776989796446E+02    0.56353E-02   -0.32866E-02  9672   0.903E-01    0.242E-01
RMM:   3    -0.776978395034E+02    0.11401E-02   -0.39412E-03 10351   0.263E-01    0.994E-02
RMM:   4    -0.776976701040E+02    0.16940E-03   -0.48889E-04 10742   0.954E-02    0.407E-02
RMM:   5    -0.776976600828E+02    0.10021E-04   -0.59387E-05  8920   0.384E-02    0.199E-02
WARNING in EDDRMM: call to ZHEGV failed, returncode =   8  4      2
RMM:   6    -0.776976607170E+02   -0.63423E-06   -0.43007E-06  5829   0.207E-02
   2 F= -.77697661E+02 E0= -.77697661E+02  d E =-.246727E-02  mag=    -0.0000
 trial-energy change:   -0.002467  1 .order   -0.002437   -0.004802   -0.000072
 step:   1.0152(harm=  1.0152)  dis= 0.00409  next Energy=   -77.697631 (dE=-0.244E-02)
 bond charge predicted
       N       E                     dE             d eps       ncg     rms          rms(c)
DAV:   1    -0.776976652983E+02   -0.52155E-05   -0.15888E-04  9488   0.720E-02    0.111E-02
RMM:   2    -0.776976641805E+02    0.11178E-05   -0.15052E-05  6179   0.188E-02
   3 F= -.77697664E+02 E0= -.77697664E+02  d E =-.247074E-02  mag=    -0.0000
 curvature:  -0.51 expect dE=-0.438E-02 dE for cont linesearch -0.192E-05
 trial: gam= 1.77084 g(F)=  0.839E-02 g(S)=  0.250E-03 ort = 0.135E-03 (trialstep = 0.199E+00)
 search vector abs. value=  0.242E-01
 bond charge predicted
       N       E                     dE             d eps       ncg     rms          rms(c)
DAV:   1    -0.777001184561E+02   -0.24532E-02   -0.17267E-01  9924   0.244E+00    0.256E-01
RMM:   2    -0.776993795550E+02    0.73890E-03   -0.77885E-03  9457   0.434E-01    0.782E-02
RMM:   3    -0.776990958963E+02    0.28366E-03   -0.78923E-04 10179   0.118E-01    0.379E-02
RMM:   4    -0.776990621645E+02    0.33732E-04   -0.12865E-04  9458   0.441E-02    0.214E-02
RMM:   5    -0.776990612117E+02    0.95282E-06   -0.85455E-06  5782   0.185E-02
   4 F= -.77699061E+02 E0= -.77699061E+02  d E =-.139703E-02  mag=    -0.0000
 trial-energy change:   -0.001397  1 .order   -0.001432   -0.001769   -0.001096
 step:   0.5241(harm=  0.5241)  dis= 0.00373  next Energy=   -77.699990 (dE=-0.233E-02)
 bond charge predicted
       N       E                     dE             d eps       ncg     rms          rms(c)
DAV:   1    -0.777027608618E+02   -0.36987E-02   -0.46010E-01  9352   0.399E+00    0.418E-01
RMM:   2    -0.777008300181E+02    0.19308E-02   -0.20988E-02  9453   0.710E-01    0.127E-01
RMM:   3    -0.777000660703E+02    0.76395E-03   -0.20803E-03 10186   0.192E-01    0.614E-02
RMM:   4    -0.776999777192E+02    0.88351E-04   -0.34694E-04 10348   0.718E-02    0.349E-02
RMM:   5    -0.776999744593E+02    0.32600E-05   -0.30346E-05  7303   0.283E-02
   5 F= -.77699974E+02 E0= -.77699974E+02  d E =-.231028E-02  mag=    -0.0000
 curvature:  -0.71 expect dE=-0.134E-03 dE for cont linesearch -0.107E-05
 trial: gam=-0.01791 g(F)=  0.162E-03 g(S)=  0.259E-04 ort = 0.190E-03 (trialstep = 0.264E+00)
 search vector abs. value=  0.189E-03
 bond charge predicted
       N       E                     dE             d eps       ncg     rms          rms(c)
DAV:   1    -0.777000128659E+02   -0.35147E-04   -0.20056E-03 11140   0.278E-01    0.316E-02
RMM:   2    -0.777000124343E+02    0.43161E-06   -0.57346E-05  7613   0.396E-02
   6 F= -.77700012E+02 E0= -.77700012E+02  d E =-.379750E-04  mag=     0.0000
 trial-energy change:   -0.000038  1 .order   -0.000037   -0.000049   -0.000026
 step:   0.5552(harm=  0.5552)  dis= 0.00062  next Energy=   -77.700026 (dE=-0.512E-04)
 bond charge predicted
       N       E                     dE             d eps       ncg     rms          rms(c)
DAV:   1    -0.777000207360E+02   -0.78701E-05   -0.23232E-03 10272   0.301E-01    0.350E-02
RMM:   2    -0.777000191310E+02    0.16050E-05   -0.65615E-05  8945   0.438E-02
   7 F= -.77700019E+02 E0= -.77700019E+02  d E =-.446717E-04  mag=     0.0000
 curvature:  -0.28 expect dE=-0.156E-04 dE for cont linesearch -0.238E-06
 trial: gam= 0.36619 g(F)=  0.375E-04 g(S)=  0.173E-04 ort =-0.126E-04 (trialstep = 0.322E+00)
 search vector abs. value=  0.709E-04
 reached required accuracy - stopping structural energy minimisation
