unknown system                          
           1
     2.730513   -4.577934    0.000000
     2.730513    4.577934    0.000000
     0.000000    0.000000    4.748969
   Li   P    N    O 
   4   2   2   4
Direct configuration=     1
   0.32513600  0.99379300  0.50155600
   0.99379300  0.32513600  0.50155600
   0.67486400  0.00620700  0.00155600
   0.00620700  0.67486400  0.00155600
   0.65375000  0.65375000  0.49851100
   0.34625000  0.34625000  0.99851100
   0.38700000  0.38700000  0.34117600
   0.61300000  0.61300000  0.84117600
   0.94449700  0.66640300  0.41910100
   0.66640300  0.94449700  0.41910100
   0.05550300  0.33359700  0.91910100
   0.33359700  0.05550300  0.91910100
unknown system                          
           1
     2.725433   -4.565097    0.000000
     2.725433    4.565097    0.000000
     0.000000    0.000000    4.746950
   Li   P    N    O 
   4   2   2   4
Direct configuration=     2
   0.32499351  0.99374068  0.50151769
   0.99374068  0.32499351  0.50151769
   0.67500649  0.00625932  0.00151769
   0.00625932  0.67500649  0.00151769
   0.65440879  0.65440879  0.49858511
   0.34559121  0.34559121  0.99858511
   0.38660021  0.38660021  0.34202413
   0.61339979  0.61339979  0.84202413
   0.94477453  0.66660916  0.41867819
   0.66660916  0.94477453  0.41867819
   0.05522547  0.33339084  0.91867819
   0.33339084  0.05522547  0.91867819
unknown system                          
           1
     2.725356   -4.564902    0.000000
     2.725356    4.564902    0.000000
     0.000000    0.000000    4.746919
   Li   P    N    O 
   4   2   2   4
Direct configuration=     3
   0.32499134  0.99373988  0.50151710
   0.99373988  0.32499134  0.50151710
   0.67500866  0.00626012  0.00151710
   0.00626012  0.67500866  0.00151710
   0.65441883  0.65441883  0.49858624
   0.34558117  0.34558117  0.99858624
   0.38659412  0.38659412  0.34203703
   0.61340588  0.61340588  0.84203703
   0.94477875  0.66661230  0.41867176
   0.66661230  0.94477875  0.41867176
   0.05522125  0.33338770  0.91867176
   0.33338770  0.05522125  0.91867176
unknown system                          
           1
     2.723481   -4.560979    0.000000
     2.723481    4.560979    0.000000
     0.000000    0.000000    4.745502
   Li   P    N    O 
   4   2   2   4
Direct configuration=     4
   0.32492952  0.99371944  0.50150270
   0.99371944  0.32492952  0.50150270
   0.67507048  0.00628056  0.00150270
   0.00628056  0.67507048  0.00150270
   0.65441379  0.65441379  0.49884240
   0.34558621  0.34558621  0.99884240
   0.38635055  0.38635055  0.34232489
   0.61364945  0.61364945  0.84232489
   0.94517402  0.66673785  0.41841416
   0.66673785  0.94517402  0.41841416
   0.05482598  0.33326215  0.91841416
   0.33326215  0.05482598  0.91841416
unknown system                          
           1
     2.720424   -4.554583    0.000000
     2.720424    4.554583    0.000000
     0.000000    0.000000    4.743192
   Li   P    N    O 
   4   2   2   4
Direct configuration=     5
   0.32482865  0.99368610  0.50147921
   0.99368610  0.32482865  0.50147921
   0.67517135  0.00631390  0.00147921
   0.00631390  0.67517135  0.00147921
   0.65440556  0.65440556  0.49926018
   0.34559444  0.34559444  0.99926018
   0.38595317  0.38595317  0.34279434
   0.61404683  0.61404683  0.84279434
   0.94581895  0.66694266  0.41799403
   0.66694266  0.94581895  0.41799403
   0.05418105  0.33305734  0.91799403
   0.33305734  0.05418105  0.91799403
unknown system                          
           1
     2.720559   -4.555032    0.000000
     2.720559    4.555032    0.000000
     0.000000    0.000000    4.743194
   Li   P    N    O 
   4   2   2   4
Direct configuration=     6
   0.32482233  0.99366697  0.50148711
   0.99366697  0.32482233  0.50148711
   0.67517767  0.00633303  0.00148711
   0.00633303  0.67517767  0.00148711
   0.65444602  0.65444602  0.49924868
   0.34555398  0.34555398  0.99924868
   0.38589912  0.38589912  0.34276050
   0.61410088  0.61410088  0.84276050
   0.94584182  0.66693062  0.41800880
   0.66693062  0.94584182  0.41800880
   0.05415818  0.33306938  0.91800880
   0.33306938  0.05415818  0.91800880
unknown system                          
           1
     2.720708   -4.555527    0.000000
     2.720708    4.555527    0.000000
     0.000000    0.000000    4.743197
   Li   P    N    O 
   4   2   2   4
Direct configuration=     7
   0.32481537  0.99364589  0.50149580
   0.99364589  0.32481537  0.50149580
   0.67518463  0.00635411  0.00149580
   0.00635411  0.67518463  0.00149580
   0.65449059  0.65449059  0.49923602
   0.34550941  0.34550941  0.99923602
   0.38583960  0.38583960  0.34272323
   0.61416040  0.61416040  0.84272323
   0.94586701  0.66691736  0.41802508
   0.66691736  0.94586701  0.41802508
   0.05413299  0.33308264  0.91802508
   0.33308264  0.05413299  0.91802508
