  14  14   1   0
  0.1342521E+02  0.9244539E-09  0.8745663E-09  0.4937041E-09  0.5000000E-15
  1.000000000000000E-004
  CAR 
 unknown system                          
     10.85354685    -23.73120153  301     -0.06946951      1.00000000
    -23.731  0.0000E+00  0.0000E+00  0.0000E+00  0.0000E+00
    -23.616  0.0000E+00  0.0000E+00  0.0000E+00  0.0000E+00
    -23.501  0.0000E+00  0.0000E+00  0.0000E+00  0.0000E+00
    -23.385  0.0000E+00  0.0000E+00  0.0000E+00  0.0000E+00
    -23.270  0.0000E+00  0.0000E+00  0.0000E+00  0.0000E+00
    -23.155  0.0000E+00  0.0000E+00  0.0000E+00  0.0000E+00
    -23.040  0.0000E+00  0.0000E+00  0.0000E+00  0.0000E+00
    -22.924  0.0000E+00  0.0000E+00  0.0000E+00  0.0000E+00
    -22.809  0.0000E+00  0.0000E+00  0.0000E+00  0.0000E+00
    -22.694  0.0000E+00  0.0000E+00  0.0000E+00  0.0000E+00
    -22.578  0.0000E+00  0.0000E+00  0.0000E+00  0.0000E+00
    -22.463  0.0000E+00  0.0000E+00  0.0000E+00  0.0000E+00
    -22.348  0.0000E+00  0.0000E+00  0.0000E+00  0.0000E+00
    -22.233  0.0000E+00  0.0000E+00  0.0000E+00  0.0000E+00
    -22.117  0.7433E-02  0.7433E-02  0.1382E-03  0.1382E-03
    -22.002  0.2225E-01  0.2225E-01  0.1789E-02  0.1789E-02
    -21.887  0.3077E-01  0.3077E-01  0.6132E-02  0.6132E-02
    -21.771  0.1840E-01  0.1840E-01  0.8634E-02  0.8634E-02
    -21.656  0.1572E-01  0.1572E-01  0.1054E-01  0.1054E-01
    -21.541  0.1347E-01  0.1347E-01  0.1232E-01  0.1232E-01
    -21.426  0.2892E-01  0.2892E-01  0.1448E-01  0.1448E-01
    -21.310  0.2584E-01  0.2584E-01  0.1817E-01  0.1817E-01
    -21.195  0.7229E-02  0.7229E-02  0.2008E-01  0.2008E-01
    -21.080  0.0000E+00  0.0000E+00  0.2020E-01  0.2020E-01
    -20.964  0.1121E-01  0.1121E-01  0.2063E-01  0.2063E-01
    -20.849  0.2801E-01  0.2801E-01  0.2278E-01  0.2278E-01
    -20.734  0.2397E-01  0.2397E-01  0.2585E-01  0.2585E-01
    -20.619  0.1109E-01  0.1109E-01  0.2765E-01  0.2765E-01
    -20.503  0.1061E-01  0.1061E-01  0.2882E-01  0.2882E-01
    -20.388  0.1001E-01  0.1001E-01  0.3008E-01  0.3008E-01
    -20.273  0.1048E-01  0.1048E-01  0.3121E-01  0.3121E-01
    -20.157  0.1071E-01  0.1071E-01  0.3241E-01  0.3241E-01
    -20.042  0.1119E-01  0.1119E-01  0.3368E-01  0.3368E-01
    -19.927  0.2372E-01  0.2372E-01  0.3565E-01  0.3565E-01
    -19.812  0.1370E-01  0.1370E-01  0.3806E-01  0.3806E-01
    -19.696  0.7644E-02  0.7644E-02  0.3924E-01  0.3924E-01
    -19.581  0.4677E-02  0.4677E-02  0.3994E-01  0.3994E-01
    -19.466  0.2049E-02  0.2049E-02  0.4034E-01  0.4034E-01
    -19.350  0.2691E+00  0.2691E+00  0.5311E-01  0.5311E-01
    -19.235  0.0000E+00  0.0000E+00  0.6061E-01  0.6061E-01
    -19.120  0.0000E+00  0.0000E+00  0.6061E-01  0.6061E-01
    -19.005  0.0000E+00  0.0000E+00  0.6061E-01  0.6061E-01
    -18.889  0.0000E+00  0.0000E+00  0.6061E-01  0.6061E-01
    -18.774  0.0000E+00  0.0000E+00  0.6061E-01  0.6061E-01
    -18.659  0.0000E+00  0.0000E+00  0.6061E-01  0.6061E-01
    -18.543  0.0000E+00  0.0000E+00  0.6061E-01  0.6061E-01
    -18.428  0.0000E+00  0.0000E+00  0.6061E-01  0.6061E-01
    -18.313  0.0000E+00  0.0000E+00  0.6061E-01  0.6061E-01
    -18.198  0.0000E+00  0.0000E+00  0.6061E-01  0.6061E-01
    -18.082  0.0000E+00  0.0000E+00  0.6061E-01  0.6061E-01
    -17.967  0.0000E+00  0.0000E+00  0.6061E-01  0.6061E-01
    -17.852  0.0000E+00  0.0000E+00  0.6061E-01  0.6061E-01
    -17.737  0.1129E-01  0.1129E-01  0.6101E-01  0.6101E-01
    -17.621  0.7415E-01  0.7415E-01  0.6536E-01  0.6536E-01
    -17.506  0.5311E-01  0.5311E-01  0.7118E-01  0.7118E-01
    -17.391  0.3053E+00  0.3053E+00  0.9012E-01  0.9012E-01
    -17.275  0.0000E+00  0.0000E+00  0.1010E+00  0.1010E+00
    -17.160  0.0000E+00  0.0000E+00  0.1010E+00  0.1010E+00
    -17.045  0.0000E+00  0.0000E+00  0.1010E+00  0.1010E+00
    -16.930  0.0000E+00  0.0000E+00  0.1010E+00  0.1010E+00
    -16.814  0.0000E+00  0.0000E+00  0.1010E+00  0.1010E+00
    -16.699  0.0000E+00  0.0000E+00  0.1010E+00  0.1010E+00
    -16.584  0.0000E+00  0.0000E+00  0.1010E+00  0.1010E+00
    -16.468  0.0000E+00  0.0000E+00  0.1010E+00  0.1010E+00
    -16.353  0.0000E+00  0.0000E+00  0.1010E+00  0.1010E+00
    -16.238  0.0000E+00  0.0000E+00  0.1010E+00  0.1010E+00
    -16.123  0.0000E+00  0.0000E+00  0.1010E+00  0.1010E+00
    -16.007  0.0000E+00  0.0000E+00  0.1010E+00  0.1010E+00
    -15.892  0.0000E+00  0.0000E+00  0.1010E+00  0.1010E+00
    -15.777  0.0000E+00  0.0000E+00  0.1010E+00  0.1010E+00
    -15.661  0.0000E+00  0.0000E+00  0.1010E+00  0.1010E+00
    -15.546  0.0000E+00  0.0000E+00  0.1010E+00  0.1010E+00
    -15.431  0.0000E+00  0.0000E+00  0.1010E+00  0.1010E+00
    -15.316  0.0000E+00  0.0000E+00  0.1010E+00  0.1010E+00
    -15.200  0.0000E+00  0.0000E+00  0.1010E+00  0.1010E+00
    -15.085  0.0000E+00  0.0000E+00  0.1010E+00  0.1010E+00
    -14.970  0.0000E+00  0.0000E+00  0.1010E+00  0.1010E+00
    -14.854  0.0000E+00  0.0000E+00  0.1010E+00  0.1010E+00
    -14.739  0.0000E+00  0.0000E+00  0.1010E+00  0.1010E+00
    -14.624  0.0000E+00  0.0000E+00  0.1010E+00  0.1010E+00
    -14.509  0.0000E+00  0.0000E+00  0.1010E+00  0.1010E+00
    -14.393  0.0000E+00  0.0000E+00  0.1010E+00  0.1010E+00
    -14.278  0.0000E+00  0.0000E+00  0.1010E+00  0.1010E+00
    -14.163  0.0000E+00  0.0000E+00  0.1010E+00  0.1010E+00
    -14.047  0.0000E+00  0.0000E+00  0.1010E+00  0.1010E+00
    -13.932  0.0000E+00  0.0000E+00  0.1010E+00  0.1010E+00
    -13.817  0.0000E+00  0.0000E+00  0.1010E+00  0.1010E+00
    -13.702  0.0000E+00  0.0000E+00  0.1010E+00  0.1010E+00
    -13.586  0.0000E+00  0.0000E+00  0.1010E+00  0.1010E+00
    -13.471  0.0000E+00  0.0000E+00  0.1010E+00  0.1010E+00
    -13.356  0.0000E+00  0.0000E+00  0.1010E+00  0.1010E+00
    -13.240  0.0000E+00  0.0000E+00  0.1010E+00  0.1010E+00
    -13.125  0.0000E+00  0.0000E+00  0.1010E+00  0.1010E+00
    -13.010  0.0000E+00  0.0000E+00  0.1010E+00  0.1010E+00
    -12.895  0.0000E+00  0.0000E+00  0.1010E+00  0.1010E+00
    -12.779  0.0000E+00  0.0000E+00  0.1010E+00  0.1010E+00
    -12.664  0.0000E+00  0.0000E+00  0.1010E+00  0.1010E+00
    -12.549  0.2408E-02  0.2408E-02  0.1011E+00  0.1011E+00
    -12.434  0.4578E-02  0.4578E-02  0.1015E+00  0.1015E+00
    -12.318  0.6575E-02  0.6575E-02  0.1021E+00  0.1021E+00
    -12.203  0.9663E-02  0.9663E-02  0.1031E+00  0.1031E+00
    -12.088  0.1760E-01  0.1760E-01  0.1046E+00  0.1046E+00
    -11.972  0.1505E-01  0.1505E-01  0.1067E+00  0.1067E+00
    -11.857  0.8062E-02  0.8062E-02  0.1079E+00  0.1079E+00
    -11.742  0.7829E-02  0.7829E-02  0.1088E+00  0.1088E+00
    -11.627  0.7047E-02  0.7047E-02  0.1097E+00  0.1097E+00
    -11.511  0.6264E-02  0.6264E-02  0.1105E+00  0.1105E+00
    -11.396  0.6356E-02  0.6356E-02  0.1112E+00  0.1112E+00
    -11.281  0.6765E-02  0.6765E-02  0.1120E+00  0.1120E+00
    -11.165  0.6334E-02  0.6334E-02  0.1128E+00  0.1128E+00
    -11.050  0.6466E-02  0.6466E-02  0.1135E+00  0.1135E+00
    -10.935  0.8314E-02  0.8314E-02  0.1144E+00  0.1144E+00
    -10.820  0.1003E-01  0.1003E-01  0.1154E+00  0.1154E+00
    -10.704  0.1309E-01  0.1309E-01  0.1168E+00  0.1168E+00
    -10.589  0.1462E-01  0.1462E-01  0.1183E+00  0.1183E+00
    -10.474  0.9643E-02  0.9643E-02  0.1198E+00  0.1198E+00
    -10.358  0.5861E-02  0.5861E-02  0.1207E+00  0.1207E+00
    -10.243  0.1930E-02  0.1930E-02  0.1211E+00  0.1211E+00
    -10.128  0.6499E-05  0.6499E-05  0.1212E+00  0.1212E+00
    -10.013  0.5182E-03  0.5182E-03  0.1212E+00  0.1212E+00
     -9.897  0.3157E-02  0.3157E-02  0.1214E+00  0.1214E+00
     -9.782  0.7743E-02  0.7743E-02  0.1221E+00  0.1221E+00
     -9.667  0.1348E-01  0.1348E-01  0.1233E+00  0.1233E+00
     -9.551  0.1308E-01  0.1308E-01  0.1249E+00  0.1249E+00
     -9.436  0.1065E-01  0.1065E-01  0.1263E+00  0.1263E+00
     -9.321  0.8056E-02  0.8056E-02  0.1274E+00  0.1274E+00
     -9.206  0.6570E-02  0.6570E-02  0.1282E+00  0.1282E+00
     -9.090  0.7891E-02  0.7891E-02  0.1290E+00  0.1290E+00
     -8.975  0.7957E-02  0.7957E-02  0.1300E+00  0.1300E+00
     -8.860  0.7053E-02  0.7053E-02  0.1309E+00  0.1309E+00
     -8.744  0.6950E-02  0.6950E-02  0.1317E+00  0.1317E+00
     -8.629  0.7448E-02  0.7448E-02  0.1325E+00  0.1325E+00
     -8.514  0.7526E-02  0.7526E-02  0.1334E+00  0.1334E+00
     -8.399  0.8105E-02  0.8105E-02  0.1343E+00  0.1343E+00
     -8.283  0.8902E-02  0.8902E-02  0.1353E+00  0.1353E+00
     -8.168  0.1503E-01  0.1503E-01  0.1366E+00  0.1366E+00
     -8.053  0.1835E-01  0.1835E-01  0.1386E+00  0.1386E+00
     -7.937  0.1026E-01  0.1026E-01  0.1404E+00  0.1404E+00
     -7.822  0.4455E-02  0.4455E-02  0.1412E+00  0.1412E+00
     -7.707  0.0000E+00  0.0000E+00  0.1414E+00  0.1414E+00
     -7.592  0.0000E+00  0.0000E+00  0.1414E+00  0.1414E+00
     -7.476  0.7504E-02  0.7504E-02  0.1416E+00  0.1416E+00
     -7.361  0.2324E-01  0.2324E-01  0.1433E+00  0.1433E+00
     -7.246  0.4187E-01  0.4187E-01  0.1476E+00  0.1476E+00
     -7.131  0.5461E-01  0.5461E-01  0.1528E+00  0.1528E+00
     -7.015  0.4084E-01  0.4084E-01  0.1591E+00  0.1591E+00
     -6.900  0.0000E+00  0.0000E+00  0.1616E+00  0.1616E+00
     -6.785  0.0000E+00  0.0000E+00  0.1616E+00  0.1616E+00
     -6.669  0.0000E+00  0.0000E+00  0.1616E+00  0.1616E+00
     -6.554  0.0000E+00  0.0000E+00  0.1616E+00  0.1616E+00
     -6.439  0.0000E+00  0.0000E+00  0.1616E+00  0.1616E+00
     -6.324  0.0000E+00  0.0000E+00  0.1616E+00  0.1616E+00
     -6.208  0.0000E+00  0.0000E+00  0.1616E+00  0.1616E+00
     -6.093  0.0000E+00  0.0000E+00  0.1616E+00  0.1616E+00
     -5.978  0.0000E+00  0.0000E+00  0.1616E+00  0.1616E+00
     -5.862  0.0000E+00  0.0000E+00  0.1616E+00  0.1616E+00
     -5.747  0.0000E+00  0.0000E+00  0.1616E+00  0.1616E+00
     -5.632  0.0000E+00  0.0000E+00  0.1616E+00  0.1616E+00
     -5.517  0.1450E-01  0.1450E-01  0.1625E+00  0.1625E+00
     -5.401  0.2462E-01  0.2462E-01  0.1647E+00  0.1647E+00
     -5.286  0.3031E-01  0.3031E-01  0.1678E+00  0.1678E+00
     -5.171  0.5956E-01  0.5956E-01  0.1724E+00  0.1724E+00
     -5.055  0.4044E-01  0.4044E-01  0.1802E+00  0.1802E+00
     -4.940  0.2380E-01  0.2380E-01  0.1833E+00  0.1833E+00
     -4.825  0.3821E-01  0.3821E-01  0.1868E+00  0.1868E+00
     -4.710  0.2773E-01  0.2773E-01  0.1907E+00  0.1907E+00
     -4.594  0.3668E-01  0.3668E-01  0.1929E+00  0.1929E+00
     -4.479  0.2284E-01  0.2284E-01  0.1983E+00  0.1983E+00
     -4.364  0.2234E-01  0.2234E-01  0.2005E+00  0.2005E+00
     -4.248  0.5720E-01  0.5720E-01  0.2067E+00  0.2067E+00
     -4.133  0.4404E-01  0.4404E-01  0.2121E+00  0.2121E+00
     -4.018  0.5171E-01  0.5171E-01  0.2179E+00  0.2179E+00
     -3.903  0.3193E-01  0.3193E-01  0.2230E+00  0.2230E+00
     -3.787  0.3352E-01  0.3352E-01  0.2261E+00  0.2261E+00
     -3.672  0.9944E-01  0.9944E-01  0.2327E+00  0.2327E+00
     -3.557  0.4209E-01  0.4209E-01  0.2408E+00  0.2408E+00
     -3.441  0.3225E-02  0.3225E-02  0.2425E+00  0.2425E+00
     -3.326  0.2966E-01  0.2966E-01  0.2439E+00  0.2439E+00
     -3.211  0.4037E-01  0.4037E-01  0.2492E+00  0.2492E+00
     -3.096  0.3205E-01  0.3205E-01  0.2531E+00  0.2531E+00
     -2.980  0.2600E-01  0.2600E-01  0.2562E+00  0.2562E+00
     -2.865  0.4440E-01  0.4440E-01  0.2604E+00  0.2604E+00
     -2.750  0.6023E-03  0.6023E-03  0.2626E+00  0.2626E+00
     -2.635  0.4472E-01  0.4472E-01  0.2653E+00  0.2653E+00
     -2.519  0.3919E-01  0.3919E-01  0.2703E+00  0.2703E+00
     -2.404  0.6664E-01  0.6664E-01  0.2778E+00  0.2778E+00
     -2.289  0.5478E-01  0.5478E-01  0.2844E+00  0.2844E+00
     -2.173  0.3372E-01  0.3372E-01  0.2888E+00  0.2888E+00
     -2.058  0.5294E-01  0.5294E-01  0.2968E+00  0.2968E+00
     -1.943  0.6576E-01  0.6576E-01  0.3046E+00  0.3046E+00
     -1.828  0.4909E-01  0.4909E-01  0.3109E+00  0.3109E+00
     -1.712  0.2138E-01  0.2138E-01  0.3153E+00  0.3153E+00
     -1.597  0.1928E-01  0.1928E-01  0.3174E+00  0.3174E+00
     -1.482  0.2983E-01  0.2983E-01  0.3212E+00  0.3212E+00
     -1.366  0.8399E-02  0.8399E-02  0.3230E+00  0.3230E+00
     -1.251  0.0000E+00  0.0000E+00  0.3232E+00  0.3232E+00
     -1.136  0.0000E+00  0.0000E+00  0.3232E+00  0.3232E+00
     -1.021  0.0000E+00  0.0000E+00  0.3232E+00  0.3232E+00
     -0.905  0.0000E+00  0.0000E+00  0.3232E+00  0.3232E+00
     -0.790  0.0000E+00  0.0000E+00  0.3232E+00  0.3232E+00
     -0.675  0.8057E-01  0.8057E-01  0.3255E+00  0.3255E+00
     -0.559  0.1305E+00  0.1305E+00  0.3396E+00  0.3396E+00
     -0.444  0.1611E+00  0.1611E+00  0.3524E+00  0.3524E+00
     -0.329  0.2087E+00  0.2087E+00  0.3683E+00  0.3683E+00
     -0.214  0.1850E+00  0.1850E+00  0.3883E+00  0.3883E+00
     -0.098  0.0000E+00  0.0000E+00  0.4040E+00  0.4040E+00
      0.017  0.0000E+00  0.0000E+00  0.4040E+00  0.4040E+00
      0.132  0.0000E+00  0.0000E+00  0.4040E+00  0.4040E+00
      0.248  0.0000E+00  0.0000E+00  0.4040E+00  0.4040E+00
      0.363  0.0000E+00  0.0000E+00  0.4040E+00  0.4040E+00
      0.478  0.0000E+00  0.0000E+00  0.4040E+00  0.4040E+00
      0.593  0.0000E+00  0.0000E+00  0.4040E+00  0.4040E+00
      0.709  0.0000E+00  0.0000E+00  0.4040E+00  0.4040E+00
      0.824  0.0000E+00  0.0000E+00  0.4040E+00  0.4040E+00
      0.939  0.0000E+00  0.0000E+00  0.4040E+00  0.4040E+00
      1.055  0.0000E+00  0.0000E+00  0.4040E+00  0.4040E+00
      1.170  0.0000E+00  0.0000E+00  0.4040E+00  0.4040E+00
      1.285  0.0000E+00  0.0000E+00  0.4040E+00  0.4040E+00
      1.400  0.0000E+00  0.0000E+00  0.4040E+00  0.4040E+00
      1.516  0.0000E+00  0.0000E+00  0.4040E+00  0.4040E+00
      1.631  0.0000E+00  0.0000E+00  0.4040E+00  0.4040E+00
      1.746  0.0000E+00  0.0000E+00  0.4040E+00  0.4040E+00
      1.862  0.0000E+00  0.0000E+00  0.4040E+00  0.4040E+00
      1.977  0.0000E+00  0.0000E+00  0.4040E+00  0.4040E+00
      2.092  0.0000E+00  0.0000E+00  0.4040E+00  0.4040E+00
      2.207  0.0000E+00  0.0000E+00  0.4040E+00  0.4040E+00
      2.323  0.0000E+00  0.0000E+00  0.4040E+00  0.4040E+00
      2.438  0.0000E+00  0.0000E+00  0.4040E+00  0.4040E+00
      2.553  0.0000E+00  0.0000E+00  0.4040E+00  0.4040E+00
      2.668  0.0000E+00  0.0000E+00  0.4040E+00  0.4040E+00
      2.784  0.0000E+00  0.0000E+00  0.4040E+00  0.4040E+00
      2.899  0.0000E+00  0.0000E+00  0.4040E+00  0.4040E+00
      3.014  0.0000E+00  0.0000E+00  0.4040E+00  0.4040E+00
      3.130  0.0000E+00  0.0000E+00  0.4040E+00  0.4040E+00
      3.245  0.0000E+00  0.0000E+00  0.4040E+00  0.4040E+00
      3.360  0.0000E+00  0.0000E+00  0.4040E+00  0.4040E+00
      3.475  0.0000E+00  0.0000E+00  0.4040E+00  0.4040E+00
      3.591  0.0000E+00  0.0000E+00  0.4040E+00  0.4040E+00
      3.706  0.0000E+00  0.0000E+00  0.4040E+00  0.4040E+00
      3.821  0.0000E+00  0.0000E+00  0.4040E+00  0.4040E+00
      3.937  0.0000E+00  0.0000E+00  0.4040E+00  0.4040E+00
      4.052  0.0000E+00  0.0000E+00  0.4040E+00  0.4040E+00
      4.167  0.0000E+00  0.0000E+00  0.4040E+00  0.4040E+00
      4.282  0.0000E+00  0.0000E+00  0.4040E+00  0.4040E+00
      4.398  0.0000E+00  0.0000E+00  0.4040E+00  0.4040E+00
      4.513  0.0000E+00  0.0000E+00  0.4040E+00  0.4040E+00
      4.628  0.0000E+00  0.0000E+00  0.4040E+00  0.4040E+00
      4.744  0.0000E+00  0.0000E+00  0.4040E+00  0.4040E+00
      4.859  0.0000E+00  0.0000E+00  0.4040E+00  0.4040E+00
      4.974  0.0000E+00  0.0000E+00  0.4040E+00  0.4040E+00
      5.089  0.3314E-07  0.3315E-07  0.4040E+00  0.4040E+00
      5.205  0.5184E-03  0.5184E-03  0.4041E+00  0.4041E+00
      5.320  0.1429E-02  0.1429E-02  0.4042E+00  0.4042E+00
      5.435  0.2091E-02  0.2091E-02  0.4044E+00  0.4044E+00
      5.551  0.2718E-02  0.2718E-02  0.4047E+00  0.4047E+00
      5.666  0.3473E-02  0.3473E-02  0.4050E+00  0.4050E+00
      5.781  0.4615E-02  0.4615E-02  0.4055E+00  0.4055E+00
      5.896  0.6322E-02  0.6322E-02  0.4061E+00  0.4061E+00
      6.012  0.9249E-02  0.9249E-02  0.4070E+00  0.4070E+00
      6.127  0.1447E-01  0.1447E-01  0.4084E+00  0.4084E+00
      6.242  0.9671E-02  0.9671E-02  0.4098E+00  0.4098E+00
      6.358  0.7463E-02  0.7463E-02  0.4108E+00  0.4108E+00
      6.473  0.6807E-02  0.6807E-02  0.4116E+00  0.4116E+00
      6.588  0.6578E-02  0.6578E-02  0.4123E+00  0.4123E+00
      6.703  0.6684E-02  0.6684E-02  0.4131E+00  0.4131E+00
      6.819  0.6704E-02  0.6704E-02  0.4139E+00  0.4139E+00
      6.934  0.7627E-02  0.7627E-02  0.4147E+00  0.4147E+00
      7.049  0.9600E-02  0.9600E-02  0.4158E+00  0.4158E+00
      7.165  0.9815E-02  0.9815E-02  0.4169E+00  0.4169E+00
      7.280  0.1196E-01  0.1196E-01  0.4182E+00  0.4182E+00
      7.395  0.1553E-01  0.1553E-01  0.4198E+00  0.4198E+00
      7.510  0.2252E-01  0.2252E-01  0.4218E+00  0.4218E+00
      7.626  0.2650E-01  0.2650E-01  0.4256E+00  0.4256E+00
      7.741  0.1569E-01  0.1569E-01  0.4279E+00  0.4279E+00
      7.856  0.4534E-01  0.4534E-01  0.4315E+00  0.4315E+00
      7.971  0.2894E-01  0.2894E-01  0.4358E+00  0.4358E+00
      8.087  0.3961E-01  0.3961E-01  0.4396E+00  0.4396E+00
      8.202  0.4047E-01  0.4047E-01  0.4437E+00  0.4437E+00
      8.317  0.4382E-01  0.4382E-01  0.4511E+00  0.4511E+00
      8.433  0.6851E-01  0.6852E-01  0.4578E+00  0.4578E+00
      8.548  0.3808E-01  0.3816E-01  0.4627E+00  0.4627E+00
      8.663  0.5311E-01  0.5298E-01  0.4669E+00  0.4669E+00
      8.778  0.4525E-01  0.4512E-01  0.4718E+00  0.4718E+00
      8.894  0.3772E-01  0.3789E-01  0.4768E+00  0.4768E+00
      9.009  0.4851E-01  0.5083E-01  0.4821E+00  0.4822E+00
      9.124  0.8263E-02  0.7875E-02  0.4842E+00  0.4842E+00
      9.240  0.3414E-02  0.2797E-02  0.4848E+00  0.4847E+00
      9.355  0.0000E+00  0.0000E+00  0.4848E+00  0.4848E+00
      9.470  0.0000E+00  0.0000E+00  0.4848E+00  0.4848E+00
      9.585  0.0000E+00  0.0000E+00  0.4848E+00  0.4848E+00
      9.701  0.0000E+00  0.0000E+00  0.4848E+00  0.4848E+00
      9.816  0.0000E+00  0.0000E+00  0.4848E+00  0.4848E+00
      9.931  0.0000E+00  0.0000E+00  0.4848E+00  0.4848E+00
     10.047  0.0000E+00  0.0000E+00  0.4848E+00  0.4848E+00
     10.162  0.0000E+00  0.0000E+00  0.4848E+00  0.4848E+00
     10.277  0.0000E+00  0.0000E+00  0.4848E+00  0.4848E+00
     10.392  0.0000E+00  0.0000E+00  0.4848E+00  0.4848E+00
     10.508  0.0000E+00  0.0000E+00  0.4848E+00  0.4848E+00
     10.623  0.0000E+00  0.0000E+00  0.4848E+00  0.4848E+00
     10.738  0.0000E+00  0.0000E+00  0.4848E+00  0.4848E+00
     10.854  0.0000E+00  0.0000E+00  0.4848E+00  0.4848E+00
     10.85354685    -23.73120153  301     -0.06946951      1.00000000
    -23.731  0.0000E+00  0.0000E+00  0.0000E+00  0.0000E+00  0.0000E+00  0.0000E+00  0.0000E+00  0.0000E+00  0.0000E+00  0.0000E+00  0.0000E+00  0.0000E+00  0.0000E+00  0.0000E+00  0.0000E+00  0.0000E+00  0.0000E+00  0.0000E+00
    -23.616  0.0000E+00  0.0000E+00  0.0000E+00  0.0000E+00  0.0000E+00  0.0000E+00  0.0000E+00  0.0000E+00  0.0000E+00  0.0000E+00  0.0000E+00  0.0000E+00  0.0000E+00  0.0000E+00  0.0000E+00  0.0000E+00  0.0000E+00  0.0000E+00
    -23.501  0.0000E+00  0.0000E+00  0.0000E+00  0.0000E+00  0.0000E+00  0.0000E+00  0.0000E+00  0.0000E+00  0.0000E+00  0.0000E+00  0.0000E+00  0.0000E+00  0.0000E+00  0.0000E+00  0.0000E+00  0.0000E+00  0.0000E+00  0.0000E+00
    -23.385  0.0000E+00  0.0000E+00  0.0000E+00  0.0000E+00  0.0000E+00  0.0000E+00  0.0000E+00  0.0000E+00  0.0000E+00  0.0000E+00  0.0000E+00  0.0000E+00  0.0000E+00  0.0000E+00  0.0000E+00  0.0000E+00  0.0000E+00  0.0000E+00
    -23.270  0.0000E+00  0.0000E+00  0.0000E+00  0.0000E+00  0.0000E+00  0.0000E+00  0.0000E+00  0.0000E+00  0.0000E+00  0.0000E+00  0.0000E+00  0.0000E+00  0.0000E+00  0.0000E+00  0.0000E+00  0.0000E+00  0.0000E+00  0.0000E+00
    -23.155  0.0000E+00  0.0000E+00  0.0000E+00  0.0000E+00  0.0000E+00  0.0000E+00  0.0000E+00  0.0000E+00  0.0000E+00  0.0000E+00  0.0000E+00  0.0000E+00  0.0000E+00  0.0000E+00  0.0000E+00  0.0000E+00  0.0000E+00  0.0000E+00
    -23.040  0.0000E+00  0.0000E+00  0.0000E+00  0.0000E+00  0.0000E+00  0.0000E+00  0.0000E+00  0.0000E+00  0.0000E+00  0.0000E+00  0.0000E+00  0.0000E+00  0.0000E+00  0.0000E+00  0.0000E+00  0.0000E+00  0.0000E+00  0.0000E+00
    -22.924  0.0000E+00  0.0000E+00  0.0000E+00  0.0000E+00  0.0000E+00  0.0000E+00  0.0000E+00  0.0000E+00  0.0000E+00  0.0000E+00  0.0000E+00  0.0000E+00  0.0000E+00  0.0000E+00  0.0000E+00  0.0000E+00  0.0000E+00  0.0000E+00
    -22.809  0.0000E+00  0.0000E+00  0.0000E+00  0.0000E+00  0.0000E+00  0.0000E+00  0.0000E+00  0.0000E+00  0.0000E+00  0.0000E+00  0.0000E+00  0.0000E+00  0.0000E+00  0.0000E+00  0.0000E+00  0.0000E+00  0.0000E+00  0.0000E+00
    -22.694  0.0000E+00  0.0000E+00  0.0000E+00  0.0000E+00  0.0000E+00  0.0000E+00  0.0000E+00  0.0000E+00  0.0000E+00  0.0000E+00  0.0000E+00  0.0000E+00  0.0000E+00  0.0000E+00  0.0000E+00  0.0000E+00  0.0000E+00  0.0000E+00
    -22.578  0.0000E+00  0.0000E+00  0.0000E+00  0.0000E+00  0.0000E+00  0.0000E+00  0.0000E+00  0.0000E+00  0.0000E+00  0.0000E+00  0.0000E+00  0.0000E+00  0.0000E+00  0.0000E+00  0.0000E+00  0.0000E+00  0.0000E+00  0.0000E+00
    -22.463  0.0000E+00  0.0000E+00  0.0000E+00  0.0000E+00  0.0000E+00  0.0000E+00  0.0000E+00  0.0000E+00  0.0000E+00  0.0000E+00  0.0000E+00  0.0000E+00  0.0000E+00  0.0000E+00  0.0000E+00  0.0000E+00  0.0000E+00  0.0000E+00
    -22.348  0.0000E+00  0.0000E+00  0.0000E+00  0.0000E+00  0.0000E+00  0.0000E+00  0.0000E+00  0.0000E+00  0.0000E+00  0.0000E+00  0.0000E+00  0.0000E+00  0.0000E+00  0.0000E+00  0.0000E+00  0.0000E+00  0.0000E+00  0.0000E+00
    -22.233  0.0000E+00  0.0000E+00  0.0000E+00  0.0000E+00  0.0000E+00  0.0000E+00  0.0000E+00  0.0000E+00  0.0000E+00  0.0000E+00  0.0000E+00  0.0000E+00  0.0000E+00  0.0000E+00  0.0000E+00  0.0000E+00  0.0000E+00  0.0000E+00
    -22.117  0.4123E-01  0.4123E-01  0.5757E-03  0.5757E-03  0.9023E-04  0.9023E-04  0.1347E-02  0.1347E-02  0.0000E+00  0.0000E+00  0.0000E+00  0.0000E+00  0.0000E+00  0.0000E+00  0.0000E+00  0.0000E+00  0.0000E+00  0.0000E+00
    -22.002  0.1445E+00  0.1445E+00  0.2054E-02  0.2054E-02  0.8686E-03  0.8686E-03  0.4921E-02  0.4921E-02  0.0000E+00  0.0000E+00  0.0000E+00  0.0000E+00  0.0000E+00  0.0000E+00  0.0000E+00  0.0000E+00  0.0000E+00  0.0000E+00
    -21.887  0.2309E+00  0.2309E+00  0.3929E-02  0.3929E-02  0.1639E-02  0.1639E-02  0.8270E-02  0.8270E-02  0.0000E+00  0.0000E+00  0.0000E+00  0.0000E+00  0.0000E+00  0.0000E+00  0.0000E+00  0.0000E+00  0.0000E+00  0.0000E+00
    -21.771  0.1098E+00  0.1098E+00  0.2928E-02  0.2928E-02  0.1321E-02  0.1321E-02  0.4319E-02  0.4319E-02  0.0000E+00  0.0000E+00  0.0000E+00  0.0000E+00  0.0000E+00  0.0000E+00  0.0000E+00  0.0000E+00  0.0000E+00  0.0000E+00
    -21.656  0.6853E-01  0.6853E-01  0.2453E-02  0.2453E-02  0.2344E-02  0.2344E-02  0.2423E-02  0.2423E-02  0.0000E+00  0.0000E+00  0.0000E+00  0.0000E+00  0.0000E+00  0.0000E+00  0.0000E+00  0.0000E+00  0.0000E+00  0.0000E+00
    -21.541  0.4090E-01  0.4090E-01  0.1298E-02  0.1298E-02  0.3797E-02  0.3797E-02  0.1046E-02  0.1046E-02  0.0000E+00  0.0000E+00  0.0000E+00  0.0000E+00  0.0000E+00  0.0000E+00  0.0000E+00  0.0000E+00  0.0000E+00  0.0000E+00
    -21.426  0.9370E-01  0.9370E-01  0.3192E-02  0.3192E-02  0.8478E-02  0.8478E-02  0.3275E-02  0.3275E-02  0.0000E+00  0.0000E+00  0.0000E+00  0.0000E+00  0.0000E+00  0.0000E+00  0.0000E+00  0.0000E+00  0.0000E+00  0.0000E+00
    -21.310  0.6819E-01  0.6819E-01  0.2364E-02  0.2364E-02  0.8847E-02  0.8847E-02  0.2484E-02  0.2484E-02  0.0000E+00  0.0000E+00  0.0000E+00  0.0000E+00  0.0000E+00  0.0000E+00  0.0000E+00  0.0000E+00  0.0000E+00  0.0000E+00
    -21.195  0.1866E-01  0.1866E-01  0.6730E-03  0.6730E-03  0.2818E-02  0.2818E-02  0.6805E-03  0.6805E-03  0.0000E+00  0.0000E+00  0.0000E+00  0.0000E+00  0.0000E+00  0.0000E+00  0.0000E+00  0.0000E+00  0.0000E+00  0.0000E+00
    -21.080  0.0000E+00  0.0000E+00  0.0000E+00  0.0000E+00  0.0000E+00  0.0000E+00  0.0000E+00  0.0000E+00  0.0000E+00  0.0000E+00  0.0000E+00  0.0000E+00  0.0000E+00  0.0000E+00  0.0000E+00  0.0000E+00  0.0000E+00  0.0000E+00
    -20.964  0.2725E-01  0.2725E-01  0.1138E-02  0.1138E-02  0.5921E-02  0.5921E-02  0.1007E-02  0.1007E-02  0.0000E+00  0.0000E+00  0.0000E+00  0.0000E+00  0.0000E+00  0.0000E+00  0.0000E+00  0.0000E+00  0.0000E+00  0.0000E+00
    -20.849  0.6285E-01  0.6285E-01  0.3087E-02  0.3087E-02  0.1593E-01  0.1593E-01  0.2393E-02  0.2393E-02  0.0000E+00  0.0000E+00  0.0000E+00  0.0000E+00  0.0000E+00  0.0000E+00  0.0000E+00  0.0000E+00  0.0000E+00  0.0000E+00
    -20.734  0.6284E-01  0.6284E-01  0.4015E-02  0.4015E-02  0.1432E-01  0.1432E-01  0.2882E-02  0.2882E-02  0.0000E+00  0.0000E+00  0.0000E+00  0.0000E+00  0.0000E+00  0.0000E+00  0.0000E+00  0.0000E+00  0.0000E+00  0.0000E+00
    -20.619  0.2487E-01  0.2487E-01  0.1438E-02  0.1438E-02  0.7949E-02  0.7949E-02  0.1140E-02  0.1140E-02  0.0000E+00  0.0000E+00  0.0000E+00  0.0000E+00  0.0000E+00  0.0000E+00  0.0000E+00  0.0000E+00  0.0000E+00  0.0000E+00
    -20.503  0.2597E-01  0.2597E-01  0.2665E-02  0.2665E-02  0.6835E-02  0.6835E-02  0.1763E-02  0.1763E-02  0.0000E+00  0.0000E+00  0.0000E+00  0.0000E+00  0.0000E+00  0.0000E+00  0.0000E+00  0.0000E+00  0.0000E+00  0.0000E+00
    -20.388  0.2736E-01  0.2736E-01  0.3913E-02  0.3913E-02  0.5688E-02  0.5688E-02  0.2367E-02  0.2367E-02  0.0000E+00  0.0000E+00  0.0000E+00  0.0000E+00  0.0000E+00  0.0000E+00  0.0000E+00  0.0000E+00  0.0000E+00  0.0000E+00
    -20.273  0.3238E-01  0.3238E-01  0.5664E-02  0.5664E-02  0.4431E-02  0.4431E-02  0.3271E-02  0.3271E-02  0.0000E+00  0.0000E+00  0.0000E+00  0.0000E+00  0.0000E+00  0.0000E+00  0.0000E+00  0.0000E+00  0.0000E+00  0.0000E+00
    -20.157  0.3430E-01  0.3430E-01  0.6281E-02  0.6281E-02  0.3865E-02  0.3865E-02  0.3677E-02  0.3677E-02  0.0000E+00  0.0000E+00  0.0000E+00  0.0000E+00  0.0000E+00  0.0000E+00  0.0000E+00  0.0000E+00  0.0000E+00  0.0000E+00
    -20.042  0.3675E-01  0.3675E-01  0.6795E-02  0.6795E-02  0.2857E-02  0.2857E-02  0.4108E-02  0.4108E-02  0.0000E+00  0.0000E+00  0.0000E+00  0.0000E+00  0.0000E+00  0.0000E+00  0.0000E+00  0.0000E+00  0.0000E+00  0.0000E+00
    -19.927  0.7344E-01  0.7344E-01  0.8082E-02  0.8082E-02  0.1095E-01  0.1095E-01  0.5692E-02  0.5692E-02  0.0000E+00  0.0000E+00  0.0000E+00  0.0000E+00  0.0000E+00  0.0000E+00  0.0000E+00  0.0000E+00  0.0000E+00  0.0000E+00
    -19.812  0.3255E-01  0.3255E-01  0.4530E-02  0.4530E-02  0.6367E-02  0.6367E-02  0.3134E-02  0.3134E-02  0.0000E+00  0.0000E+00  0.0000E+00  0.0000E+00  0.0000E+00  0.0000E+00  0.0000E+00  0.0000E+00  0.0000E+00  0.0000E+00
    -19.696  0.1258E-01  0.1258E-01  0.2873E-02  0.2873E-02  0.3774E-02  0.3774E-02  0.1830E-02  0.1830E-02  0.0000E+00  0.0000E+00  0.0000E+00  0.0000E+00  0.0000E+00  0.0000E+00  0.0000E+00  0.0000E+00  0.0000E+00  0.0000E+00
    -19.581  0.5131E-02  0.5131E-02  0.1901E-02  0.1901E-02  0.2100E-02  0.2100E-02  0.1143E-02  0.1143E-02  0.0000E+00  0.0000E+00  0.0000E+00  0.0000E+00  0.0000E+00  0.0000E+00  0.0000E+00  0.0000E+00  0.0000E+00  0.0000E+00
    -19.466  0.1064E-02  0.1064E-02  0.1273E-02  0.1273E-02  0.6018E-03  0.6018E-03  0.7025E-03  0.7025E-03  0.0000E+00  0.0000E+00  0.0000E+00  0.0000E+00  0.0000E+00  0.0000E+00  0.0000E+00  0.0000E+00  0.0000E+00  0.0000E+00
    -19.350  0.1095E-02  0.1095E-02  0.9332E-01  0.9332E-01  0.4192E+00  0.4192E+00  0.2841E-01  0.2841E-01  0.0000E+00  0.0000E+00  0.0000E+00  0.0000E+00  0.0000E+00  0.0000E+00  0.0000E+00  0.0000E+00  0.0000E+00  0.0000E+00
    -19.235  0.0000E+00  0.0000E+00  0.0000E+00  0.0000E+00  0.0000E+00  0.0000E+00  0.0000E+00  0.0000E+00  0.0000E+00  0.0000E+00  0.0000E+00  0.0000E+00  0.0000E+00  0.0000E+00  0.0000E+00  0.0000E+00  0.0000E+00  0.0000E+00
    -19.120  0.0000E+00  0.0000E+00  0.0000E+00  0.0000E+00  0.0000E+00  0.0000E+00  0.0000E+00  0.0000E+00  0.0000E+00  0.0000E+00  0.0000E+00  0.0000E+00  0.0000E+00  0.0000E+00  0.0000E+00  0.0000E+00  0.0000E+00  0.0000E+00
    -19.005  0.0000E+00  0.0000E+00  0.0000E+00  0.0000E+00  0.0000E+00  0.0000E+00  0.0000E+00  0.0000E+00  0.0000E+00  0.0000E+00  0.0000E+00  0.0000E+00  0.0000E+00  0.0000E+00  0.0000E+00  0.0000E+00  0.0000E+00  0.0000E+00
    -18.889  0.0000E+00  0.0000E+00  0.0000E+00  0.0000E+00  0.0000E+00  0.0000E+00  0.0000E+00  0.0000E+00  0.0000E+00  0.0000E+00  0.0000E+00  0.0000E+00  0.0000E+00  0.0000E+00  0.0000E+00  0.0000E+00  0.0000E+00  0.0000E+00
    -18.774  0.0000E+00  0.0000E+00  0.0000E+00  0.0000E+00  0.0000E+00  0.0000E+00  0.0000E+00  0.0000E+00  0.0000E+00  0.0000E+00  0.0000E+00  0.0000E+00  0.0000E+00  0.0000E+00  0.0000E+00  0.0000E+00  0.0000E+00  0.0000E+00
    -18.659  0.0000E+00  0.0000E+00  0.0000E+00  0.0000E+00  0.0000E+00  0.0000E+00  0.0000E+00  0.0000E+00  0.0000E+00  0.0000E+00  0.0000E+00  0.0000E+00  0.0000E+00  0.0000E+00  0.0000E+00  0.0000E+00  0.0000E+00  0.0000E+00
    -18.543  0.0000E+00  0.0000E+00  0.0000E+00  0.0000E+00  0.0000E+00  0.0000E+00  0.0000E+00  0.0000E+00  0.0000E+00  0.0000E+00  0.0000E+00  0.0000E+00  0.0000E+00  0.0000E+00  0.0000E+00  0.0000E+00  0.0000E+00  0.0000E+00
    -18.428  0.0000E+00  0.0000E+00  0.0000E+00  0.0000E+00  0.0000E+00  0.0000E+00  0.0000E+00  0.0000E+00  0.0000E+00  0.0000E+00  0.0000E+00  0.0000E+00  0.0000E+00  0.0000E+00  0.0000E+00  0.0000E+00  0.0000E+00  0.0000E+00
    -18.313  0.0000E+00  0.0000E+00  0.0000E+00  0.0000E+00  0.0000E+00  0.0000E+00  0.0000E+00  0.0000E+00  0.0000E+00  0.0000E+00  0.0000E+00  0.0000E+00  0.0000E+00  0.0000E+00  0.0000E+00  0.0000E+00  0.0000E+00  0.0000E+00
    -18.198  0.0000E+00  0.0000E+00  0.0000E+00  0.0000E+00  0.0000E+00  0.0000E+00  0.0000E+00  0.0000E+00  0.0000E+00  0.0000E+00  0.0000E+00  0.0000E+00  0.0000E+00  0.0000E+00  0.0000E+00  0.0000E+00  0.0000E+00  0.0000E+00
    -18.082  0.0000E+00  0.0000E+00  0.0000E+00  0.0000E+00  0.0000E+00  0.0000E+00  0.0000E+00  0.0000E+00  0.0000E+00  0.0000E+00  0.0000E+00  0.0000E+00  0.0000E+00  0.0000E+00  0.0000E+00  0.0000E+00  0.0000E+00  0.0000E+00
    -17.967  0.0000E+00  0.0000E+00  0.0000E+00  0.0000E+00  0.0000E+00  0.0000E+00  0.0000E+00  0.0000E+00  0.0000E+00  0.0000E+00  0.0000E+00  0.0000E+00  0.0000E+00  0.0000E+00  0.0000E+00  0.0000E+00  0.0000E+00  0.0000E+00