 running on   24 total cores
 distrk:  each k-point on   24 cores,    1 groups
 distr:  one band on    6 cores,    4 groups
 using from now: INCAR     
 vasp.5.4.4.18Apr17-6-g9f103f2a35 (build Aug 12 2020 11:57:02) complex          
  
 POSCAR found type information on POSCAR  P  O 
 POSCAR found :  2 types and      14 ions
 scaLAPACK will be used
 LDA part: xc-table for Pade appr. of Perdew
 generate k-points for:    7    7    7
 POSCAR, INCAR and KPOINTS ok, starting setup
 FFT: planning ...
 WAVECAR not read
 entering main loop
       N       E                     dE             d eps       ncg     rms          rms(c)
DAV:   1     0.576159948686E+03    0.57616E+03   -0.43311E+04 12336   0.155E+03
DAV:   2    -0.723074140598E+02   -0.64847E+03   -0.63549E+03 15376   0.358E+02
DAV:   3    -0.111794739284E+03   -0.39487E+02   -0.39294E+02 14328   0.984E+01
DAV:   4    -0.112521028026E+03   -0.72629E+00   -0.72377E+00 15552   0.136E+01
DAV:   5    -0.112535539455E+03   -0.14511E-01   -0.14501E-01 14144   0.188E+00    0.416E+01
RMM:   6    -0.986315014109E+02    0.13904E+02   -0.62152E+01 12288   0.308E+01    0.176E+01
RMM:   7    -0.984931609840E+02    0.13834E+00   -0.34847E+00 13304   0.647E+00    0.764E+00
RMM:   8    -0.984287564195E+02    0.64405E-01   -0.92608E-01 12288   0.459E+00    0.129E+00
RMM:   9    -0.984043501211E+02    0.24406E-01   -0.27408E-01 12288   0.183E+00    0.586E-01
RMM:  10    -0.983988804565E+02    0.54697E-02   -0.15785E-02 12288   0.540E-01    0.228E-01
RMM:  11    -0.984003211264E+02   -0.14407E-02   -0.43894E-03 12300   0.294E-01    0.123E-01
RMM:  12    -0.984000698261E+02    0.25130E-03   -0.56283E-04 11793   0.885E-02    0.337E-02
RMM:  13    -0.984001034502E+02   -0.33624E-04   -0.37198E-04 10951   0.592E-02    0.335E-02
RMM:  14    -0.984000872969E+02    0.16153E-04   -0.82958E-05 10207   0.361E-02    0.314E-03
RMM:  15    -0.984000883638E+02   -0.10669E-05   -0.54971E-06  7093   0.963E-03
   1 F= -.98400088E+02 E0= -.98400088E+02  d E =-.984001E+02  mag=    -0.0000
 curvature:   0.00 expect dE= 0.000E+00 dE for cont linesearch  0.000E+00
 trial: gam= 0.00000 g(F)=  0.278E-04 g(S)=  0.697E-04 ort = 0.000E+00 (trialstep = 0.100E+01)
 search vector abs. value=  0.974E-04
 bond charge predicted
       N       E                     dE             d eps       ncg     rms          rms(c)
DAV:   1    -0.984002956945E+02   -0.20840E-03   -0.11358E-02 13440   0.615E-01    0.151E-01
RMM:   2    -0.984001040286E+02    0.19167E-03   -0.65151E-04 12288   0.127E-01    0.454E-02
RMM:   3    -0.984000854400E+02    0.18589E-04   -0.99965E-05 12029   0.419E-02    0.129E-02
RMM:   4    -0.984000812340E+02    0.42060E-05   -0.96642E-06  7167   0.143E-02
   2 F= -.98400081E+02 E0= -.98400081E+02  d E =0.712980E-05  mag=    -0.0000
 trial-energy change:    0.000007  1 .order    0.000002   -0.000097    0.000102
 step:   0.4887(harm=  0.4887)  dis= 0.00016  next Energy=   -98.400112 (dE=-0.238E-04)
 bond charge predicted
       N       E                     dE             d eps       ncg     rms          rms(c)
DAV:   1    -0.984001605217E+02   -0.75082E-04   -0.29625E-03 13704   0.314E-01    0.808E-02
RMM:   2    -0.984001153752E+02    0.45146E-04   -0.15895E-04 12288   0.632E-02    0.257E-02
RMM:   3    -0.984001100147E+02    0.53605E-05   -0.22675E-05  7118   0.214E-02
   3 F= -.98400110E+02 E0= -.98400110E+02  d E =-.216509E-04  mag=    -0.0000
 curvature:  -0.24 expect dE=-0.846E-05 dE for cont linesearch -0.561E-06
 trial: gam= 0.00000 g(F)=  0.295E-04 g(S)=  0.513E-05 ort =-0.150E-04 (trialstep = 0.898E+00)
 search vector abs. value=  0.346E-04
 reached required accuracy - stopping structural energy minimisation
