unknown system                          
           1
     0.000000    4.083457    8.293785
     2.774842    0.000000    8.293785
     2.774842    4.083457    0.000000
   P    O 
   4  10
Direct configuration=     1
   0.60148400  0.55065200  0.24482100
   0.60304400  0.24482100  0.55065200
   0.00517900  0.64695600  0.64851600
   0.69934800  0.64851600  0.64695600
   0.27314600  0.84360000  0.39369100
   0.48956300  0.39369100  0.84360000
   0.85630900  0.76043700  0.97685400
   0.40640000  0.97685400  0.76043700
   0.99074500  0.50925500  0.50925500
   0.74074500  0.25925500  0.25925500
   0.78773000  0.48129500  0.37068700
   0.36028800  0.37068700  0.48129500
   0.87931300  0.88971200  0.46227000
   0.76870500  0.46227000  0.88971200
unknown system                          
           1
     0.000000    4.084270    8.295537
     2.775937    0.000000    8.295537
     2.775937    4.084270    0.000000
   P    O 
   4  10
Direct configuration=     2
   0.60142325  0.55072189  0.24484835
   0.60300752  0.24484835  0.55072189
   0.00515165  0.64699248  0.64857675
   0.69927811  0.64857675  0.64699248
   0.27310151  0.84364457  0.39365440
   0.48959953  0.39365440  0.84364457
   0.85634560  0.76040047  0.97689849
   0.40635543  0.97689849  0.76040047
   0.99078122  0.50921878  0.50921878
   0.74078122  0.25921878  0.25921878
   0.78779415  0.48122576  0.37068726
   0.36029282  0.37068726  0.48122576
   0.87931274  0.88970718  0.46220585
   0.76877424  0.46220585  0.88970718
unknown system                          
           1
     0.000000    4.083854    8.294641
     2.775377    0.000000    8.294641
     2.775377    4.083854    0.000000
   P    O 
   4  10
Direct configuration=     3
   0.60145430  0.55068617  0.24483437
   0.60302616  0.24483437  0.55068617
   0.00516563  0.64697384  0.64854570
   0.69931383  0.64854570  0.64697384
   0.27312425  0.84362179  0.39367311
   0.48958086  0.39367311  0.84362179
   0.85632689  0.76041914  0.97687575
   0.40637821  0.97687575  0.76041914
   0.99076271  0.50923729  0.50923729
   0.74076271  0.25923729  0.25923729
   0.78776136  0.48126115  0.37068712
   0.36029036  0.37068712  0.48126115
   0.87931288  0.88970964  0.46223864
   0.76873885  0.46223864  0.88970964
