 running on   12 total cores
 distrk:  each k-point on   12 cores,    1 groups
 distr:  one band on    6 cores,    2 groups
 using from now: INCAR     
 vasp.6.1.2 22Jul20 (build Mar 20 2021 11:25:07) complex                        
  
 POSCAR found type information on POSCAR LiP O 
 POSCAR found :  3 types and      26 ions
 scaLAPACK will be used
 LDA part: xc-table for Pade appr. of Perdew
 generate k-points for:    6    5    4
 POSCAR, INCAR and KPOINTS ok, starting setup
 FFT: planning ...
 WAVECAR not read
 entering main loop
       N       E                     dE             d eps       ncg     rms          rms(c)
DAV:   1     0.110338364043E+04    0.11034E+04   -0.60714E+04 21328   0.150E+03
DAV:   2    -0.549900871299E+02   -0.11584E+04   -0.10884E+04 25816   0.384E+02
DAV:   3    -0.171346766873E+03   -0.11636E+03   -0.11553E+03 27536   0.125E+02
DAV:   4    -0.180785249052E+03   -0.94385E+01   -0.93959E+01 38712   0.297E+01
DAV:   5    -0.182585780601E+03   -0.18005E+01   -0.17999E+01 31728   0.750E+00    0.457E+01
DAV:   6    -0.163355192131E+03    0.19231E+02   -0.92332E+01 26698   0.320E+01    0.229E+01
DAV:   7    -0.165269516713E+03   -0.19143E+01   -0.75049E+00 27736   0.956E+00    0.797E+00
DAV:   8    -0.165567081907E+03   -0.29757E+00   -0.77293E-01 27896   0.349E+00    0.410E+00
DAV:   9    -0.165699734544E+03   -0.13265E+00   -0.14162E-01 29432   0.162E+00    0.172E+00
DAV:  10    -0.165735187912E+03   -0.35453E-01   -0.57453E-02 25944   0.116E+00    0.465E-01
DAV:  11    -0.165746008418E+03   -0.10821E-01   -0.11623E-02 26896   0.435E-01    0.271E-01
DAV:  12    -0.165749305757E+03   -0.32973E-02   -0.26094E-03 28736   0.217E-01    0.141E-01
DAV:  13    -0.165751119589E+03   -0.18138E-02   -0.13325E-03 24736   0.135E-01    0.516E-02
DAV:  14    -0.165751378334E+03   -0.25875E-03   -0.18500E-04 26672   0.649E-02    0.229E-02
DAV:  15    -0.165751449841E+03   -0.71506E-04   -0.78272E-05 22112   0.373E-02    0.148E-02
DAV:  16    -0.165751458237E+03   -0.83960E-05   -0.92747E-06 18288   0.158E-02
   1 F= -.16575146E+03 E0= -.16575146E+03  d E =0.000000E+00  mag=    -0.0008
