 running on   12 total cores
 distrk:  each k-point on   12 cores,    1 groups
 distr:  one band on    6 cores,    2 groups
 using from now: INCAR     
 vasp.6.1.2 22Jul20 (build Mar 20 2021 11:25:07) complex                        
  
 POSCAR found type information on POSCAR LiO 
 POSCAR found :  2 types and       9 ions
 scaLAPACK will be used
 LDA part: xc-table for Pade appr. of Perdew
 generate k-points for:    8    7    7
 POSCAR, INCAR and KPOINTS ok, starting setup
 FFT: planning ...
 WAVECAR not read
 entering main loop
       N       E                     dE             d eps       ncg     rms          rms(c)
DAV:   1     0.362470583680E+03    0.36247E+03   -0.28201E+04 15808   0.147E+03
DAV:   2    -0.188756875367E+02   -0.38135E+03   -0.36823E+03 20710   0.352E+02
DAV:   3    -0.435813961855E+02   -0.24706E+02   -0.24447E+02 23220   0.903E+01
DAV:   4    -0.444738481269E+02   -0.89245E+00   -0.88822E+00 26512   0.124E+01
DAV:   5    -0.445459885278E+02   -0.72140E-01   -0.72135E-01 21200   0.173E+00    0.146E+01
RMM:   6    -0.448019147202E+02   -0.25593E+00   -0.31604E+00 18120   0.927E+00    0.102E+01
RMM:   7    -0.443057301489E+02    0.49618E+00   -0.11127E+00 17719   0.575E+00    0.551E+00
RMM:   8    -0.440102880506E+02    0.29544E+00   -0.51001E-01 17938   0.420E+00    0.253E+00
RMM:   9    -0.440406972274E+02   -0.30409E-01   -0.16781E-01 18766   0.249E+00    0.125E+00
RMM:  10    -0.440441991226E+02   -0.35019E-02   -0.33509E-02 20450   0.107E+00    0.107E+00
RMM:  11    -0.440383195688E+02    0.58796E-02   -0.88547E-03 21222   0.575E-01    0.366E-01
RMM:  12    -0.440389179624E+02   -0.59839E-03   -0.45891E-03 21961   0.425E-01    0.106E-01
RMM:  13    -0.440392868471E+02   -0.36888E-03   -0.16323E-03 26372   0.214E-01    0.495E-02
RMM:  14    -0.440394155344E+02   -0.12869E-03   -0.67156E-04 26656   0.127E-01    0.252E-02
RMM:  15    -0.440394693157E+02   -0.53781E-04   -0.33132E-04 26590   0.851E-02    0.151E-02
WARNING in EDDRMM: call to ZHEGV failed, returncode =   8  4     16
WARNING in EDDRMM: call to ZHEGV failed, returncode =   6  3      2
RMM:  16    -0.440394938085E+02   -0.24493E-04   -0.15515E-04 23416   0.567E-02    0.104E-02
RMM:  17    -0.440395070179E+02   -0.13209E-04   -0.64857E-05 19309   0.415E-02    0.499E-03
RMM:  18    -0.440395097353E+02   -0.27175E-05   -0.17814E-05 14893   0.316E-02
   1 F= -.44039510E+02 E0= -.44039510E+02  d E =0.000000E+00  mag=     0.0119
 -----------------------------------------------------------------------------
|                                                                             |
|           W    W    AA    RRRRR   N    N  II  N    N   GGGG   !!!           |
|           W    W   A  A   R    R  NN   N  II  NN   N  G    G  !!!           |
|           W    W  A    A  R    R  N N  N  II  N N  N  G       !!!           |
|           W WW W  AAAAAA  RRRRR   N  N N  II  N  N N  G  GGG   !            |
|           WW  WW  A    A  R   R   N   NN  II  N   NN  G    G                |
|           W    W  A    A  R    R  N    N  II  N    N   GGGG   !!!           |
|                                                                             |
|     Tetrahedron method does not include variations of the Fermi             |
|     occupations, so forces and stress will be inaccurate. We suggest        |
|     using a different smearing scheme ISMEAR = 1 or 2 for metals in         |
|     relaxations.                                                            |
|                                                                             |
 -----------------------------------------------------------------------------

