 running on    8 total cores
 distrk:  each k-point on    8 cores,    1 groups
 distr:  one band on    4 cores,    2 groups
 using from now: INCAR     
 vasp.6.1.2 22Jul20 (build Mar 20 2021 11:25:07) complex                        
  
 POSCAR found type information on POSCAR LiP 
 POSCAR found :  2 types and      40 ions
 scaLAPACK will be used
 LDA part: xc-table for Pade appr. of Perdew
 generate k-points for:    4    3    3
 POSCAR, INCAR and KPOINTS ok, starting setup
 FFT: planning ...
 WAVECAR not read
 entering main loop
       N       E                     dE             d eps       ncg     rms          rms(c)
DAV:   1     0.106173909562E+04    0.10617E+04   -0.68735E+04  6832   0.133E+03
DAV:   2    -0.277606749212E+02   -0.10895E+04   -0.10063E+04  7984   0.288E+02
DAV:   3    -0.164970274937E+03   -0.13721E+03   -0.13541E+03  9296   0.972E+01
DAV:   4    -0.180872776529E+03   -0.15903E+02   -0.15798E+02 12320   0.290E+01
DAV:   5    -0.184015493122E+03   -0.31427E+01   -0.31410E+01 11192   0.855E+00    0.342E+01
DAV:   6    -0.184109162916E+03   -0.93670E-01   -0.96789E+00  8952   0.726E+00    0.188E+01
DAV:   7    -0.186254536611E+03   -0.21454E+01   -0.34039E+00  8584   0.444E+00    0.113E+01
DAV:   8    -0.187125568856E+03   -0.87103E+00   -0.14736E+00  8104   0.318E+00    0.256E+00
DAV:   9    -0.187205631302E+03   -0.80062E-01   -0.22279E-01  9672   0.137E+00    0.121E+00
DAV:  10    -0.187219011310E+03   -0.13380E-01   -0.40730E-02  8952   0.524E-01    0.481E-01
DAV:  11    -0.187223006430E+03   -0.39951E-02   -0.66698E-03  8248   0.256E-01    0.231E-01
DAV:  12    -0.187225033568E+03   -0.20271E-02   -0.25032E-03  9184   0.141E-01    0.106E-01
DAV:  13    -0.187225922875E+03   -0.88931E-03   -0.67672E-04  8536   0.697E-02    0.459E-02
DAV:  14    -0.187226236093E+03   -0.31322E-03   -0.26916E-04  8144   0.422E-02    0.270E-02
DAV:  15    -0.187226343573E+03   -0.10748E-03   -0.11674E-04  7152   0.276E-02    0.131E-02
DAV:  16    -0.187226364410E+03   -0.20837E-04   -0.22960E-05  6976   0.135E-02    0.652E-03
DAV:  17    -0.187226369052E+03   -0.46425E-05   -0.56446E-06  5168   0.760E-03
   1 F= -.18722637E+03 E0= -.18722637E+03  d E =0.000000E+00  mag=    -0.0002
