Automatically generated mesh
     282
Reciprocal lattice
    0.00000000000000    0.00000000000000    0.00000000000000             1
    0.14285714285715   -0.00000000000000   -0.00000000000000             2
    0.28571428571428    0.00000000000000   -0.00000000000000             2
    0.42857142857143   -0.00000000000000   -0.00000000000000             2
   -0.00000000000000    0.12500000000000   -0.00000000000000             2
    0.14285714285715    0.12500000000000   -0.00000000000000             2
    0.28571428571428    0.12500000000000   -0.00000000000000             2
    0.42857142857143    0.12500000000000   -0.00000000000000             2
   -0.42857142857143    0.12500000000000   -0.00000000000000             2
   -0.28571428571428    0.12500000000000   -0.00000000000000             2
   -0.14285714285715    0.12500000000000   -0.00000000000000             2
   -0.00000000000000    0.25000000000000   -0.00000000000000             2
    0.14285714285715    0.25000000000000   -0.00000000000000             2
    0.28571428571428    0.25000000000000   -0.00000000000000             2
    0.42857142857143    0.25000000000000   -0.00000000000000             2
   -0.42857142857143    0.25000000000000   -0.00000000000000             2
   -0.28571428571428    0.25000000000000    0.00000000000000             2
   -0.14285714285715    0.25000000000000   -0.00000000000000             2
   -0.00000000000000    0.37500000000000   -0.00000000000000             2
    0.14285714285715    0.37500000000000   -0.00000000000000             2
    0.28571428571428    0.37500000000000   -0.00000000000000             2
    0.42857142857143    0.37500000000000   -0.00000000000000             2
   -0.42857142857143    0.37500000000000    0.00000000000000             2
   -0.28571428571428    0.37500000000000    0.00000000000000             2
   -0.14285714285715    0.37500000000000    0.00000000000000             2
   -0.00000000000000    0.50000000000000   -0.00000000000000             1
    0.14285714285715    0.50000000000000   -0.00000000000000             2
    0.28571428571428    0.50000000000000   -0.00000000000000             2
    0.42857142857143    0.50000000000000    0.00000000000000             2
   -0.00000000000000   -0.00000000000000    0.10000000000000             2
    0.14285714285715   -0.00000000000000    0.10000000000000             2
    0.28571428571428    0.00000000000000    0.10000000000000             2
    0.42857142857143    0.00000000000000    0.10000000000000             2
   -0.42857142857143   -0.00000000000000    0.10000000000000             2
   -0.28571428571428   -0.00000000000000    0.10000000000000             2
   -0.14285714285715    0.00000000000000    0.10000000000000             2
   -0.00000000000000    0.12500000000000    0.10000000000000             2
    0.14285714285715    0.12500000000000    0.10000000000000             2
    0.28571428571428    0.12500000000000    0.10000000000000             2
    0.42857142857143    0.12500000000000    0.10000000000000             2
   -0.42857142857143    0.12500000000000    0.10000000000000             2
   -0.28571428571428    0.12500000000000    0.10000000000000             2
   -0.14285714285715    0.12500000000000    0.10000000000000             2
    0.00000000000000    0.25000000000000    0.10000000000000             2
    0.14285714285715    0.25000000000000    0.10000000000000             2
    0.28571428571428    0.25000000000000    0.10000000000000             2
    0.42857142857143    0.25000000000000    0.10000000000000             2
   -0.42857142857143    0.25000000000000    0.10000000000000             2
   -0.28571428571428    0.25000000000000    0.10000000000000             2
   -0.14285714285715    0.25000000000000    0.10000000000000             2
   -0.00000000000000    0.37500000000000    0.10000000000000             2
    0.14285714285715    0.37500000000000    0.10000000000000             2
    0.28571428571428    0.37500000000000    0.10000000000000             2
    0.42857142857143    0.37500000000000    0.10000000000000             2
   -0.42857142857143    0.37500000000000    0.10000000000000             2
   -0.28571428571428    0.37500000000000    0.10000000000000             2
   -0.14285714285715    0.37500000000000    0.10000000000000             2
    0.00000000000000    0.50000000000000    0.10000000000000             2
    0.14285714285715    0.50000000000000    0.10000000000000             2
    0.28571428571428    0.50000000000000    0.10000000000000             2
    0.42857142857143    0.50000000000000    0.10000000000000             2
   -0.42857142857143    0.50000000000000    0.10000000000000             2
   -0.28571428571428    0.50000000000000    0.10000000000000             2
   -0.14285714285715    0.50000000000000    0.10000000000000             2
    0.00000000000000   -0.37500000000000    0.10000000000000             2
    0.14285714285715   -0.37500000000000    0.10000000000000             2
    0.28571428571428   -0.37500000000000    0.10000000000000             2
    0.42857142857143   -0.37500000000000    0.10000000000000             2
   -0.42857142857143   -0.37500000000000    0.10000000000000             2
   -0.28571428571428   -0.37500000000000    0.10000000000000             2
   -0.14285714285715   -0.37500000000000    0.10000000000000             2
   -0.00000000000000   -0.25000000000000    0.10000000000000             2
    0.14285714285715   -0.25000000000000    0.10000000000000             2
    0.28571428571428   -0.25000000000000    0.10000000000000             2
    0.42857142857143   -0.25000000000000    0.10000000000000             2
   -0.42857142857143   -0.25000000000000    0.10000000000000             2
   -0.28571428571428   -0.25000000000000    0.10000000000000             2
   -0.14285714285715   -0.25000000000000    0.10000000000000             2
    0.00000000000000   -0.12500000000000    0.10000000000000             2
    0.14285714285715   -0.12500000000000    0.10000000000000             2
    0.28571428571428   -0.12500000000000    0.10000000000000             2
    0.42857142857143   -0.12500000000000    0.10000000000000             2
   -0.42857142857143   -0.12500000000000    0.10000000000000             2
   -0.28571428571428   -0.12500000000000    0.10000000000000             2
   -0.14285714285715   -0.12500000000000    0.10000000000000             2
   -0.00000000000000    0.00000000000000    0.20000000000000             2
    0.14285714285715   -0.00000000000000    0.20000000000000             2
    0.28571428571428    0.00000000000000    0.20000000000000             2
    0.42857142857143   -0.00000000000000    0.20000000000000             2
   -0.42857142857143   -0.00000000000000    0.20000000000000             2
   -0.28571428571428   -0.00000000000000    0.20000000000000             2
   -0.14285714285715   -0.00000000000000    0.20000000000000             2
   -0.00000000000000    0.12500000000000    0.20000000000000             2
    0.14285714285715    0.12500000000000    0.20000000000000             2
    0.28571428571428    0.12500000000000    0.20000000000000             2
    0.42857142857143    0.12500000000000    0.20000000000000             2
   -0.42857142857143    0.12500000000000    0.20000000000000             2
   -0.28571428571428    0.12500000000000    0.20000000000000             2
   -0.14285714285715    0.12500000000000    0.20000000000000             2
    0.00000000000000    0.25000000000000    0.20000000000000             2
    0.14285714285715    0.25000000000000    0.20000000000000             2
    0.28571428571428    0.25000000000000    0.20000000000000             2
    0.42857142857143    0.25000000000000    0.20000000000000             2
   -0.42857142857143    0.25000000000000    0.20000000000000             2
   -0.28571428571428    0.25000000000000    0.20000000000000             2
   -0.14285714285715    0.25000000000000    0.20000000000000             2
    0.00000000000000    0.37500000000000    0.20000000000000             2
    0.14285714285715    0.37500000000000    0.20000000000000             2
    0.28571428571428    0.37500000000000    0.20000000000000             2
    0.42857142857143    0.37500000000000    0.20000000000000             2
   -0.42857142857143    0.37500000000000    0.20000000000000             2
   -0.28571428571428    0.37500000000000    0.20000000000000             2
   -0.14285714285715    0.37500000000000    0.20000000000000             2
    0.00000000000000    0.50000000000000    0.20000000000000             2
    0.14285714285715    0.50000000000000    0.20000000000000             2
    0.28571428571428    0.50000000000000    0.20000000000000             2
    0.42857142857143    0.50000000000000    0.20000000000000             2
   -0.42857142857143    0.50000000000000    0.20000000000000             2
   -0.28571428571428    0.50000000000000    0.20000000000000             2
   -0.14285714285715    0.50000000000000    0.20000000000000             2
   -0.00000000000000   -0.37500000000000    0.20000000000000             2
    0.14285714285715   -0.37500000000000    0.20000000000000             2
    0.28571428571428   -0.37500000000000    0.20000000000000             2
    0.42857142857143   -0.37500000000000    0.20000000000000             2
   -0.42857142857143   -0.37500000000000    0.20000000000000             2
   -0.28571428571428   -0.37500000000000    0.20000000000000             2
   -0.14285714285715   -0.37500000000000    0.20000000000000             2
   -0.00000000000000   -0.25000000000000    0.20000000000000             2
    0.14285714285715   -0.25000000000000    0.20000000000000             2
    0.28571428571428   -0.25000000000000    0.20000000000000             2
    0.42857142857143   -0.25000000000000    0.20000000000000             2
   -0.42857142857143   -0.25000000000000    0.20000000000000             2
   -0.28571428571428   -0.25000000000000    0.20000000000000             2
   -0.14285714285715   -0.25000000000000    0.20000000000000             2
   -0.00000000000000   -0.12500000000000    0.20000000000000             2
    0.14285714285715   -0.12500000000000    0.20000000000000             2
    0.28571428571428   -0.12500000000000    0.20000000000000             2
    0.42857142857143   -0.12500000000000    0.20000000000000             2
   -0.42857142857143   -0.12500000000000    0.20000000000000             2
   -0.28571428571428   -0.12500000000000    0.20000000000000             2
   -0.14285714285715   -0.12500000000000    0.20000000000000             2
   -0.00000000000000    0.00000000000000    0.30000000000000             2
    0.14285714285715    0.00000000000000    0.30000000000000             2
    0.28571428571428    0.00000000000000    0.30000000000000             2
    0.42857142857143   -0.00000000000000    0.30000000000000             2
   -0.42857142857143    0.00000000000000    0.30000000000000             2
   -0.28571428571428    0.00000000000000    0.30000000000000             2
   -0.14285714285715   -0.00000000000000    0.30000000000000             2
   -0.00000000000000    0.12500000000000    0.30000000000000             2
    0.14285714285715    0.12500000000000    0.30000000000000             2
    0.28571428571428    0.12500000000000    0.30000000000000             2
    0.42857142857143    0.12500000000000    0.30000000000000             2
   -0.42857142857143    0.12500000000000    0.30000000000000             2
   -0.28571428571428    0.12500000000000    0.30000000000000             2
   -0.14285714285715    0.12500000000000    0.30000000000000             2
   -0.00000000000000    0.25000000000000    0.30000000000000             2
    0.14285714285715    0.25000000000000    0.30000000000000             2
    0.28571428571428    0.25000000000000    0.30000000000000             2
    0.42857142857143    0.25000000000000    0.30000000000000             2
   -0.42857142857143    0.25000000000000    0.30000000000000             2
   -0.28571428571428    0.25000000000000    0.30000000000000             2
   -0.14285714285715    0.25000000000000    0.30000000000000             2
   -0.00000000000000    0.37500000000000    0.30000000000000             2
    0.14285714285715    0.37500000000000    0.30000000000000             2
    0.28571428571428    0.37500000000000    0.30000000000000             2
    0.42857142857143    0.37500000000000    0.30000000000000             2
   -0.42857142857143    0.37500000000000    0.30000000000000             2
   -0.28571428571428    0.37500000000000    0.30000000000000             2
   -0.14285714285715    0.37500000000000    0.30000000000000             2
   -0.00000000000000    0.50000000000000    0.30000000000000             2
    0.14285714285715    0.50000000000000    0.30000000000000             2
    0.28571428571428    0.50000000000000    0.30000000000000             2
    0.42857142857143    0.50000000000000    0.30000000000000             2
   -0.42857142857143    0.50000000000000    0.30000000000000             2
   -0.28571428571428    0.50000000000000    0.30000000000000             2
   -0.14285714285715    0.50000000000000    0.30000000000000             2
   -0.00000000000000   -0.37500000000000    0.30000000000000             2
    0.14285714285715   -0.37500000000000    0.30000000000000             2
    0.28571428571428   -0.37500000000000    0.30000000000000             2
    0.42857142857143   -0.37500000000000    0.30000000000000             2
   -0.42857142857143   -0.37500000000000    0.30000000000000             2
   -0.28571428571428   -0.37500000000000    0.30000000000000             2
   -0.14285714285715   -0.37500000000000    0.30000000000000             2
   -0.00000000000000   -0.25000000000000    0.30000000000000             2
    0.14285714285715   -0.25000000000000    0.30000000000000             2
    0.28571428571428   -0.25000000000000    0.30000000000000             2
    0.42857142857143   -0.25000000000000    0.30000000000000             2
   -0.42857142857143   -0.25000000000000    0.30000000000000             2
   -0.28571428571428   -0.25000000000000    0.30000000000000             2
   -0.14285714285715   -0.25000000000000    0.30000000000000             2
   -0.00000000000000   -0.12500000000000    0.30000000000000             2
    0.14285714285715   -0.12500000000000    0.30000000000000             2
    0.28571428571428   -0.12500000000000    0.30000000000000             2
    0.42857142857143   -0.12500000000000    0.30000000000000             2
   -0.42857142857143   -0.12500000000000    0.30000000000000             2
   -0.28571428571428   -0.12500000000000    0.30000000000000             2
   -0.14285714285715   -0.12500000000000    0.30000000000000             2
   -0.00000000000000    0.00000000000000    0.40000000000000             2
    0.14285714285715    0.00000000000000    0.40000000000000             2
    0.28571428571428   -0.00000000000000    0.40000000000000             2
    0.42857142857143   -0.00000000000000    0.40000000000000             2
   -0.42857142857143   -0.00000000000000    0.40000000000000             2
   -0.28571428571428   -0.00000000000000    0.40000000000000             2
   -0.14285714285715   -0.00000000000000    0.40000000000000             2
    0.00000000000000    0.12500000000000    0.40000000000000             2
    0.14285714285715    0.12500000000000    0.40000000000000             2
    0.28571428571428    0.12500000000000    0.40000000000000             2
    0.42857142857143    0.12500000000000    0.40000000000000             2
   -0.42857142857143    0.12500000000000    0.40000000000000             2
   -0.28571428571428    0.12500000000000    0.40000000000000             2
   -0.14285714285715    0.12500000000000    0.40000000000000             2
   -0.00000000000000    0.25000000000000    0.40000000000000             2
    0.14285714285715    0.25000000000000    0.40000000000000             2
    0.28571428571428    0.25000000000000    0.40000000000000             2
    0.42857142857143    0.25000000000000    0.40000000000000             2
   -0.42857142857143    0.25000000000000    0.40000000000000             2
   -0.28571428571428    0.25000000000000    0.40000000000000             2
   -0.14285714285715    0.25000000000000    0.40000000000000             2
   -0.00000000000000    0.37500000000000    0.40000000000000             2
    0.14285714285715    0.37500000000000    0.40000000000000             2
    0.28571428571428    0.37500000000000    0.40000000000000             2
    0.42857142857143    0.37500000000000    0.40000000000000             2
   -0.42857142857143    0.37500000000000    0.40000000000000             2
   -0.28571428571428    0.37500000000000    0.40000000000000             2
   -0.14285714285715    0.37500000000000    0.40000000000000             2
    0.00000000000000    0.50000000000000    0.40000000000000             2
    0.14285714285715    0.50000000000000    0.40000000000000             2
    0.28571428571428    0.50000000000000    0.40000000000000             2
    0.42857142857143    0.50000000000000    0.40000000000000             2
   -0.42857142857143    0.50000000000000    0.40000000000000             2
   -0.28571428571428    0.50000000000000    0.40000000000000             2
   -0.14285714285715    0.50000000000000    0.40000000000000             2
    0.00000000000000   -0.37500000000000    0.40000000000000             2
    0.14285714285715   -0.37500000000000    0.40000000000000             2
    0.28571428571428   -0.37500000000000    0.40000000000000             2
    0.42857142857143   -0.37500000000000    0.40000000000000             2
   -0.42857142857143   -0.37500000000000    0.40000000000000             2
   -0.28571428571428   -0.37500000000000    0.40000000000000             2
   -0.14285714285715   -0.37500000000000    0.40000000000000             2
   -0.00000000000000   -0.25000000000000    0.40000000000000             2
    0.14285714285715   -0.25000000000000    0.40000000000000             2
    0.28571428571428   -0.25000000000000    0.40000000000000             2
    0.42857142857143   -0.25000000000000    0.40000000000000             2
   -0.42857142857143   -0.25000000000000    0.40000000000000             2
   -0.28571428571428   -0.25000000000000    0.40000000000000             2
   -0.14285714285715   -0.25000000000000    0.40000000000000             2
   -0.00000000000000   -0.12500000000000    0.40000000000000             2
    0.14285714285715   -0.12500000000000    0.40000000000000             2
    0.28571428571428   -0.12500000000000    0.40000000000000             2
    0.42857142857143   -0.12500000000000    0.40000000000000             2
   -0.42857142857143   -0.12500000000000    0.40000000000000             2
   -0.28571428571428   -0.12500000000000    0.40000000000000             2
   -0.14285714285715   -0.12500000000000    0.40000000000000             2
   -0.00000000000000    0.00000000000000    0.50000000000000             1
    0.14285714285715   -0.00000000000000    0.50000000000000             2
    0.28571428571428   -0.00000000000000    0.50000000000000             2
    0.42857142857143   -0.00000000000000    0.50000000000000             2
   -0.00000000000000    0.12500000000000    0.50000000000000             2
    0.14285714285715    0.12500000000000    0.50000000000000             2
    0.28571428571428    0.12500000000000    0.50000000000000             2
    0.42857142857143    0.12500000000000    0.50000000000000             2
   -0.42857142857143    0.12500000000000    0.50000000000000             2
   -0.28571428571428    0.12500000000000    0.50000000000000             2
   -0.14285714285715    0.12500000000000    0.50000000000000             2
   -0.00000000000000    0.25000000000000    0.50000000000000             2
    0.14285714285715    0.25000000000000    0.50000000000000             2
    0.28571428571428    0.25000000000000    0.50000000000000             2
    0.42857142857143    0.25000000000000    0.50000000000000             2
   -0.42857142857143    0.25000000000000    0.50000000000000             2
   -0.28571428571428    0.25000000000000    0.50000000000000             2
   -0.14285714285715    0.25000000000000    0.50000000000000             2
   -0.00000000000000    0.37500000000000    0.50000000000000             2
    0.14285714285715    0.37500000000000    0.50000000000000             2
    0.28571428571428    0.37500000000000    0.50000000000000             2
    0.42857142857143    0.37500000000000    0.50000000000000             2
   -0.42857142857143    0.37500000000000    0.50000000000000             2
   -0.28571428571428    0.37500000000000    0.50000000000000             2
   -0.14285714285715    0.37500000000000    0.50000000000000             2
   -0.00000000000000    0.50000000000000    0.50000000000000             1
    0.14285714285715    0.50000000000000    0.50000000000000             2
    0.28571428571428    0.50000000000000    0.50000000000000             2
    0.42857142857143    0.50000000000000    0.50000000000000             2
Tetrahedra
      1680    0.00029761904762
         2         1         2         6        30
         2         1         5         6        30
         2         5         6        30        37
         2         2         6        30        31
         2         6        30        31        38
         2         6        30        37        38
         2         2         3         7        31
         2         2         6         7        31
         2         6         7        31        38
         2         3         7        31        32
         2         7        31        32        39
         2         7        31        38        39
         2         3         4         8        32
         2         3         7         8        32
         2         7         8        32        39
         2         4         8        32        33
         2         8        32        33        40
         2         8        32        39        40
         2         4         4         9        33
         2         4         8         9        33
         2         8         9        33        40
         2         4         9        33        34
         2         9        33        34        41
         2         9        33        40        41
         2         3         4        10        34
         2         4         9        10        34
         2         9        10        34        41
         2         3        10        34        35
         2        10        34        35        42
         2        10        34        41        42
         2         2         3        11        35
         2         3        10        11        35
         2        10        11        35        42
         2         2        11        35        36
         2        11        35        36        43
         2        11        35        42        43
         2         1         2         5        36
         2         2         5        11        36
         2         5        11        36        43
         2         1         5        30        36
         2         5        30        36        37
         2         5        36        37        43
         2         5         6        13        37
         2         5        12        13        37
         2        12        13        37        44
         2         6        13        37        38
         2        13        37        38        45
         2        13        37        44        45
         2         6         7        14        38
         2         6        13        14        38
         2        13        14        38        45
         2         7        14        38        39
         2        14        38        39        46
         2        14        38        45        46
         2         7         8        15        39
         2         7        14        15        39
         2        14        15        39        46
         2         8        15        39        40
         2        15        39        40        47
         2        15        39        46        47
         2         8         9        16        40
         2         8        15        16        40
         2        15        16        40        47
         2         9        16        40        41
         2        16        40        41        48
         2        16        40        47        48
         2         9        10        17        41
         2         9        16        17        41
         2        16        17        41        48
         2        10        17        41        42
         2        17        41        42        49
         2        17        41        48        49
         2        10        11        18        42
         2        10        17        18        42
         2        17        18        42        49
         2        11        18        42        43
         2        18        42        43        50
         2        18        42        49        50
         2         5        11        12        43
         2        11        12        18        43
         2        12        18        43        50
         2         5        12        37        43
         2        12        37        43        44
         2        12        43        44        50
         2        12        13        20        44
         2        12        19        20        44
         2        19        20        44        51
         2        13        20        44        45
         2        20        44        45        52
         2        20        44        51        52
         2        13        14        21        45
         2        13        20        21        45
         2        20        21        45        52
         2        14        21        45        46
         2        21        45        46        53
         2        21        45        52        53
         2        14        15        22        46
         2        14        21        22        46
         2        21        22        46        53
         2        15        22        46        47
         2        22        46        47        54
         2        22        46        53        54
         2        15        16        23        47
         2        15        22        23        47
         2        22        23        47        54
         2        16        23        47        48
         2        23        47        48        55
         2        23        47        54        55
         2        16        17        24        48
         2        16        23        24        48
         2        23        24        48        55
         2        17        24        48        49
         2        24        48        49        56
         2        24        48        55        56
         2        17        18        25        49
         2        17        24        25        49
         2        24        25        49        56
         2        18        25        49        50
         2        25        49        50        57
         2        25        49        56        57
         2        12        18        19        50
         2        18        19        25        50
         2        19        25        50        57
         2        12        19        44        50
         2        19        44        50        51
         2        19        50        51        57
         2        19        20        27        51
         2        19        26        27        51
         2        26        27        51        58
         2        20        27        51        52
         2        27        51        52        59
         2        27        51        58        59
         2        20        21        28        52
         2        20        27        28        52
         2        27        28        52        59
         2        21        28        52        53
         2        28        52        53        60
         2        28        52        59        60
         2        21        22        29        53
         2        21        28        29        53
         2        28        29        53        60
         2        22        29        53        54
         2        29        53        54        61
         2        29        53        60        61
         2        22        23        29        54
         2        22        29        29        54
         2        29        29        54        61
         2        23        29        54        55
         2        29        54        55        62
         2        29        54        61        62
         2        23        24        28        55
         2        23        28        29        55
         2        28        29        55        62
         2        24        28        55        56
         2        28        55        56        63
         2        28        55        62        63
         2        24        25        27        56
         2        24        27        28        56
         2        27        28        56        63
         2        25        27        56        57
         2        27        56        57        64
         2        27        56        63        64
         2        19        25        26        57
         2        25        26        27        57
         2        26        27        57        64
         2        19        26        51        57
         2        26        51        57        58
         2        26        57        58        64
         2        25        26        27        58
         2        19        25        26        58
         2        19        25        58        65