       N       E                     dE             d eps       ncg     rms          rms(c)
DAV:   1     0.185952041893E+03    0.18595E+03   -0.16351E+04 24816   0.130E+03
DAV:   2    -0.363855199190E+02   -0.22234E+03   -0.21480E+03 34136   0.296E+02
DAV:   3    -0.487253954737E+02   -0.12340E+02   -0.12271E+02 31524   0.760E+01
DAV:   4    -0.488931616226E+02   -0.16777E+00   -0.16749E+00 30906   0.974E+00
DAV:   5    -0.488968528517E+02   -0.36912E-02   -0.36896E-02 31204   0.138E+00    0.253E+01
RMM:   6    -0.430577396372E+02    0.58391E+01   -0.19990E+01 25079   0.250E+01    0.106E+01
RMM:   7    -0.433392007651E+02   -0.28146E+00   -0.43695E+00 28717   0.130E+01    0.470E+00
RMM:   8    -0.433388113719E+02    0.38939E-03   -0.48391E-01 29205   0.480E+00    0.275E+00
RMM:   9    -0.433359342423E+02    0.28771E-02   -0.11717E-01 29300   0.251E+00    0.743E-01
RMM:  10    -0.433381034409E+02   -0.21692E-02   -0.32369E-02 32022   0.109E+00    0.262E-01
RMM:  11    -0.433388201793E+02   -0.71674E-03   -0.12743E-02 30569   0.678E-01    0.210E-01
RMM:  12    -0.433388207389E+02   -0.55953E-06   -0.16984E-03 31558   0.287E-01    0.112E-01
RMM:  13    -0.433387761988E+02    0.44540E-04   -0.93840E-04 30154   0.208E-01    0.301E-02
RMM:  14    -0.433387839484E+02   -0.77495E-05   -0.12510E-04 31689   0.834E-02    0.223E-02
RMM:  15    -0.433387781617E+02    0.57867E-05   -0.33687E-05 24267   0.387E-02
   1 F= -.43338778E+02 E0= -.43338778E+02  d E =0.000000E+00  mag=    -0.0000
