       N       E                     dE             d eps       ncg     rms          rms(c)
DAV:   1     0.627546651028E+03    0.62755E+03   -0.37217E+04  9984   0.154E+03
DAV:   2    -0.434540420243E+02   -0.67100E+03   -0.63754E+03 11632   0.400E+02
DAV:   3    -0.102965943492E+03   -0.59512E+02   -0.59218E+02 13880   0.113E+02
DAV:   4    -0.108618062578E+03   -0.56521E+01   -0.56270E+01 17596   0.288E+01
DAV:   5    -0.109130330135E+03   -0.51227E+00   -0.51216E+00 14080   0.585E+00    0.384E+01
RMM:   6    -0.990754931644E+02    0.10055E+02   -0.42322E+01 11017   0.245E+01    0.159E+01
RMM:   7    -0.100165666958E+03   -0.10902E+01   -0.50375E+00 14383   0.895E+00    0.823E+00
RMM:   8    -0.100402494384E+03   -0.23683E+00   -0.11045E+00 16490   0.463E+00    0.396E+00
RMM:   9    -0.100472978084E+03   -0.70484E-01   -0.42285E-01 16627   0.324E+00    0.109E+00
RMM:  10    -0.100510993015E+03   -0.38015E-01   -0.28436E-01 18797   0.192E+00    0.374E-01
RMM:  11    -0.100528099830E+03   -0.17107E-01   -0.13231E-01 19306   0.120E+00    0.311E-01
RMM:  12    -0.100535230845E+03   -0.71310E-02   -0.50654E-02 19367   0.752E-01    0.191E-01
RMM:  13    -0.100537691441E+03   -0.24606E-02   -0.19144E-02 18999   0.507E-01    0.917E-02
RMM:  14    -0.100538895565E+03   -0.12041E-02   -0.10232E-02 19090   0.357E-01    0.350E-02
RMM:  15    -0.100539345349E+03   -0.44978E-03   -0.42905E-03 18732   0.226E-01    0.317E-02
RMM:  16    -0.100539551630E+03   -0.20628E-03   -0.20735E-03 18548   0.152E-01    0.196E-02
RMM:  17    -0.100539629393E+03   -0.77762E-04   -0.81685E-04 18010   0.105E-01    0.983E-03
RMM:  18    -0.100539678938E+03   -0.49545E-04   -0.46618E-04 17786   0.730E-02    0.884E-03
RMM:  19    -0.100539696516E+03   -0.17578E-04   -0.17677E-04 16814   0.501E-02    0.741E-03
RMM:  20    -0.100539708508E+03   -0.11992E-04   -0.93344E-05 15812   0.399E-02    0.250E-02
RMM:  21    -0.100539706666E+03    0.18411E-05   -0.17635E-05 11949   0.307E-02
   1 F= -.10053971E+03 E0= -.10053971E+03  d E =0.000000E+00  mag=     0.0000
