       N       E                     dE             d eps       ncg     rms          rms(c)
DAV:   1     0.186219327391E+03    0.18622E+03   -0.16497E+04 28520   0.131E+03
DAV:   2    -0.374605485525E+02   -0.22368E+03   -0.21617E+03 39416   0.300E+02
DAV:   3    -0.493953148940E+02   -0.11935E+02   -0.11873E+02 36258   0.752E+01
DAV:   4    -0.495516584388E+02   -0.15634E+00   -0.15610E+00 35650   0.949E+00
DAV:   5    -0.495550245825E+02   -0.33661E-02   -0.33649E-02 35908   0.133E+00    0.263E+01
RMM:   6    -0.436346021978E+02    0.59204E+01   -0.19987E+01 28828   0.253E+01    0.112E+01
RMM:   7    -0.439076834644E+02   -0.27308E+00   -0.46283E+00 32858   0.133E+01    0.483E+00
RMM:   8    -0.439031608431E+02    0.45226E-02   -0.47007E-01 33506   0.485E+00    0.289E+00
RMM:   9    -0.439009985573E+02    0.21623E-02   -0.11989E-01 33498   0.255E+00    0.766E-01
RMM:  10    -0.439027133084E+02   -0.17148E-02   -0.29473E-02 36717   0.109E+00    0.251E-01
RMM:  11    -0.439032934329E+02   -0.58012E-03   -0.13359E-02 35149   0.688E-01    0.215E-01
RMM:  12    -0.439032945524E+02   -0.11195E-05   -0.16546E-03 36012   0.292E-01    0.113E-01
RMM:  13    -0.439032638970E+02    0.30655E-04   -0.82782E-04 34906   0.198E-01    0.296E-02
RMM:  14    -0.439032746330E+02   -0.10736E-04   -0.12128E-04 36505   0.803E-02    0.218E-02
RMM:  15    -0.439032694580E+02    0.51750E-05   -0.28374E-05 26922   0.356E-02
   1 F= -.43903269E+02 E0= -.43903269E+02  d E =0.000000E+00  mag=    -0.0001
