   96   96   99    2
  0.8658485E+01  0.9402378E-09  0.9402378E-09  0.9402378E-09  0.5000000E-15
  1.000000000000000E-004
  CAR 
 unknown system                          
    368      4    240
 
  0.0000000E+00  0.0000000E+00  0.0000000E+00  0.3703704E-01
    1      -40.757366    -40.757363   1.000000   1.000000
    2      -40.750808    -40.750805   1.000000   1.000000
    3      -40.750808    -40.750805   1.000000   1.000000
    4      -40.750808    -40.750805   1.000000   1.000000
    5      -40.744790    -40.744787   1.000000   1.000000
    6      -40.744790    -40.744787   1.000000   1.000000
    7      -40.744790    -40.744787   1.000000   1.000000
    8      -40.739557    -40.739554   1.000000   1.000000
    9      -40.485341    -40.485340   1.000000   1.000000
   10      -40.482192    -40.482192   1.000000   1.000000
   11      -40.462300    -40.462300   1.000000   1.000000
   12      -40.462300    -40.462300   1.000000   1.000000
   13      -40.462300    -40.462300   1.000000   1.000000
   14      -40.457447    -40.457447   1.000000   1.000000
   15      -40.457447    -40.457447   1.000000   1.000000
   16      -40.457447    -40.457447   1.000000   1.000000
   17      -40.456517    -40.456517   1.000000   1.000000
   18      -40.456517    -40.456517   1.000000   1.000000
   19      -40.445908    -40.445908   1.000000   1.000000
   20      -40.445908    -40.445908   1.000000   1.000000
   21      -40.427208    -40.427208   1.000000   1.000000
   22      -40.427208    -40.427208   1.000000   1.000000
   23      -40.427208    -40.427208   1.000000   1.000000
   24      -40.420625    -40.420625   1.000000   1.000000
   25      -40.420625    -40.420625   1.000000   1.000000
   26      -40.420625    -40.420625   1.000000   1.000000
   27      -40.416836    -40.416836   1.000000   1.000000
   28      -40.416836    -40.416836   1.000000   1.000000
   29      -40.416836    -40.416836   1.000000   1.000000
   30      -40.414529    -40.414529   1.000000   1.000000
   31      -40.414529    -40.414529   1.000000   1.000000
   32      -40.414529    -40.414529   1.000000   1.000000
   33      -40.363511    -40.363511   1.000000   1.000000
   34      -40.363511    -40.363511   1.000000   1.000000
   35      -40.360144    -40.360144   1.000000   1.000000
   36      -40.360144    -40.360144   1.000000   1.000000
   37      -40.346193    -40.346193   1.000000   1.000000
   38      -40.346193    -40.346193   1.000000   1.000000
   39      -40.346193    -40.346193   1.000000   1.000000
   40      -40.346061    -40.346061   1.000000   1.000000
   41      -40.346061    -40.346061   1.000000   1.000000
   42      -40.346061    -40.346061   1.000000   1.000000
   43      -40.334996    -40.334996   1.000000   1.000000
   44      -40.332612    -40.332612   1.000000   1.000000
   45      -40.195331    -40.195330   1.000000   1.000000
   46      -40.195331    -40.195330   1.000000   1.000000
   47      -40.195133    -40.195131   1.000000   1.000000
   48      -40.189393    -40.189391   1.000000   1.000000
   49      -40.189393    -40.189391   1.000000   1.000000
   50      -40.189393    -40.189391   1.000000   1.000000
   51      -39.826309    -39.826309   1.000000   1.000000
   52      -39.826309    -39.826309   1.000000   1.000000
   53      -39.826240    -39.826240   1.000000   1.000000
   54      -39.820051    -39.820052   1.000000   1.000000
   55      -39.819916    -39.819917   1.000000   1.000000
   56      -39.819916    -39.819917   1.000000   1.000000
   57      -12.782910    -12.782909   1.000000   1.000000
   58      -12.778274    -12.778273   1.000000   1.000000
   59      -12.648143    -12.648142   1.000000   1.000000
   60      -12.642228    -12.642227   1.000000   1.000000
   61      -12.642228    -12.642227   1.000000   1.000000
   62      -12.642228    -12.642227   1.000000   1.000000
   63      -12.629524    -12.629524   1.000000   1.000000
   64      -12.629524    -12.629524   1.000000   1.000000
   65       -9.540144     -9.540143   1.000000   1.000000
   66       -9.540144     -9.540143   1.000000   1.000000
   67       -9.540144     -9.540143   1.000000   1.000000
   68       -9.496723     -9.496723   1.000000   1.000000
   69       -9.496723     -9.496723   1.000000   1.000000
   70       -9.496723     -9.496723   1.000000   1.000000
   71       -9.473411     -9.473410   1.000000   1.000000
   72       -9.473411     -9.473410   1.000000   1.000000
   73       -9.473411     -9.473410   1.000000   1.000000
   74       -9.441085     -9.441084   1.000000   1.000000
   75       -9.441085     -9.441084   1.000000   1.000000
   76       -9.441085     -9.441084   1.000000   1.000000
   77       -9.430224     -9.430223   1.000000   1.000000
   78       -9.430224     -9.430223   1.000000   1.000000
   79       -9.430224     -9.430223   1.000000   1.000000
   80       -9.399772     -9.399771   1.000000   1.000000
   81       -9.399772     -9.399771   1.000000   1.000000
   82       -9.399772     -9.399771   1.000000   1.000000
   83       -9.354692     -9.354692   1.000000   1.000000
   84       -9.354692     -9.354692   1.000000   1.000000
   85       -9.322213     -9.322212   1.000000   1.000000
   86       -9.293505     -9.293505   1.000000   1.000000
   87       -9.293505     -9.293505   1.000000   1.000000
   88       -9.293505     -9.293505   1.000000   1.000000
   89       -2.960632     -2.960632   1.000000   1.000000
   90       -2.662323     -2.662323   1.000000   1.000000
   91       -2.642642     -2.642642   1.000000   1.000000
   92       -2.642642     -2.642642   1.000000   1.000000
   93       -2.642642     -2.642642   1.000000   1.000000
   94       -2.545663     -2.545663   1.000000   1.000000
   95       -2.545663     -2.545663   1.000000   1.000000
   96       -2.509972     -2.509972   1.000000   1.000000
   97       -1.106961     -1.106961   1.000000   1.000000
   98       -1.106961     -1.106961   1.000000   1.000000
   99       -1.106961     -1.106961   1.000000   1.000000
  100       -1.062414     -1.062414   1.000000   1.000000
  101       -1.062414     -1.062414   1.000000   1.000000
  102       -1.062414     -1.062414   1.000000   1.000000
  103       -0.893443     -0.893443   1.000000   1.000000
  104       -0.774296     -0.774296   1.000000   1.000000
  105       -0.774296     -0.774296   1.000000   1.000000
  106       -0.774296     -0.774296   1.000000   1.000000
  107       -0.755731     -0.755731   1.000000   1.000000
  108       -0.755731     -0.755731   1.000000   1.000000
  109       -0.755731     -0.755731   1.000000   1.000000
  110       -0.621596     -0.621595   1.000000   1.000000
  111       -0.621596     -0.621595   1.000000   1.000000
  112       -0.621596     -0.621595   1.000000   1.000000
  113       -0.376617     -0.376616   1.000000   1.000000
  114       -0.376617     -0.376616   1.000000   1.000000
  115       -0.376617     -0.376616   1.000000   1.000000
  116       -0.354658     -0.354657   1.000000   1.000000
  117       -0.354658     -0.354657   1.000000   1.000000
  118       -0.266860     -0.266860   1.000000   1.000000
  119       -0.266860     -0.266860   1.000000   1.000000
  120       -0.266860     -0.266860   1.000000   1.000000
  121        1.136541      1.136541   1.000000   1.000000
  122        1.136541      1.136541   1.000000   1.000000
  123        1.366438      1.366438   1.000000   1.000000
  124        1.366438      1.366438   1.000000   1.000000
  125        1.366438      1.366438   1.000000   1.000000
  126        1.386282      1.386282   1.000000   1.000000
  127        1.386282      1.386282   1.000000   1.000000
  128        1.445226      1.445225   1.000000   1.000000
  129        1.488282      1.488282   1.000000   1.000000
  130        1.488282      1.488282   1.000000   1.000000
  131        1.510236      1.510236   1.000000   1.000000
  132        1.510236      1.510236   1.000000   1.000000
  133        1.510236      1.510236   1.000000   1.000000
  134        1.706200      1.706200   1.000000   1.000000
  135        1.764728      1.764727   1.000000   1.000000
  136        1.764728      1.764727   1.000000   1.000000
  137        1.764728      1.764727   1.000000   1.000000
  138        1.810385      1.810385   1.000000   1.000000
  139        1.810385      1.810385   1.000000   1.000000
  140        1.953328      1.953327   1.000000   1.000000
  141        1.953328      1.953327   1.000000   1.000000
  142        1.953328      1.953327   1.000000   1.000000
  143        2.008394      2.008394   1.000000   1.000000
  144        2.008394      2.008394   1.000000   1.000000
  145        2.008394      2.008394   1.000000   1.000000
  146        2.041726      2.041726   1.000000   1.000000
  147        2.041726      2.041726   1.000000   1.000000
  148        2.041726      2.041726   1.000000   1.000000
  149        2.068153      2.068154   1.000000   1.000000
  150        2.132051      2.132051   1.000000   1.000000
  151        2.132051      2.132051   1.000000   1.000000
  152        2.361978      2.361978   1.000000   1.000000
  153        2.361978      2.361978   1.000000   1.000000
  154        2.361978      2.361978   1.000000   1.000000
  155        2.449106      2.449106   1.000000   1.000000
  156        2.449106      2.449106   1.000000   1.000000
  157        2.449106      2.449106   1.000000   1.000000
  158        2.573330      2.573330   1.000000   1.000000
  159        2.573330      2.573330   1.000000   1.000000
  160        2.573330      2.573330   1.000000   1.000000
  161        2.674377      2.674377   1.000000   1.000000
  162        2.674377      2.674377   1.000000   1.000000
  163        2.674377      2.674377   1.000000   1.000000
  164        2.711995      2.711996   1.000000   1.000000
  165        2.963813      2.963813   1.000000   1.000000
  166        2.963813      2.963813   1.000000   1.000000
  167        2.963813      2.963813   1.000000   1.000000
  168        3.008545      3.008544   1.000000   1.000000
  169        3.008545      3.008544   1.000000   1.000000
  170        3.008545      3.008544   1.000000   1.000000
  171        3.218951      3.218951   1.000000   1.000000
  172        3.218951      3.218951   1.000000   1.000000
  173        3.218951      3.218951   1.000000   1.000000
  174        3.352834      3.352834   1.000000   1.000000
  175        3.352834      3.352834   1.000000   1.000000
  176        3.352834      3.352834   1.000000   1.000000
  177        3.438962      3.438962   1.000000   1.000000
  178        3.438962      3.438962   1.000000   1.000000
  179        3.496085      3.496085   1.000000   1.000000
  180        3.496085      3.496085   1.000000   1.000000
  181        3.496085      3.496085   1.000000   1.000000
  182        3.656902      3.656902   1.000000   1.000000
  183        3.656902      3.656902   1.000000   1.000000
  184        3.656902      3.656902   1.000000   1.000000
  185        7.176379      7.176379   0.000000   0.000000
  186        7.176379      7.176379   0.000000   0.000000
  187        7.176379      7.176379   0.000000   0.000000
  188        7.961685      7.961684   0.000000   0.000000
  189        8.121235      8.121235   0.000000   0.000000
  190        8.517859      8.517859   0.000000   0.000000
  191        8.517859      8.517859   0.000000   0.000000
  192        8.517859      8.517859   0.000000   0.000000
  193        8.617161      8.617161   0.000000   0.000000
  194        8.617161      8.617161   0.000000   0.000000
  195        9.056885      9.056885   0.000000   0.000000
  196        9.208038      9.208038   0.000000   0.000000
  197        9.208038      9.208038   0.000000   0.000000
  198        9.208038      9.208038   0.000000   0.000000
  199        9.427719      9.427719   0.000000   0.000000
  200        9.427719      9.427719   0.000000   0.000000
  201        9.427719      9.427719   0.000000   0.000000
  202        9.497431      9.497431   0.000000   0.000000
  203        9.497431      9.497431   0.000000   0.000000
  204        9.497431      9.497431   0.000000   0.000000
  205       10.012329     10.012329   0.000000   0.000000
  206       10.012329     10.012329   0.000000   0.000000
  207       10.030361     10.030358   0.000000   0.000000
  208       10.043915     10.043914   0.000000   0.000000
  209       10.043915     10.043914   0.000000   0.000000
  210       10.043915     10.043915   0.000000   0.000000
  211       10.203756     10.203756   0.000000   0.000000
  212       10.203756     10.203756   0.000000   0.000000
  213       10.203756     10.203756   0.000000   0.000000
  214       10.322983     10.322982   0.000000   0.000000
  215       10.322983     10.322982   0.000000   0.000000
  216       10.322983     10.322982   0.000000   0.000000
  217       11.290059     11.290060   0.000000   0.000000
  218       11.388740     11.388740   0.000000   0.000000
  219       11.388740     11.388740   0.000000   0.000000
  220       11.388740     11.388740   0.000000   0.000000
  221       11.450587     11.450587   0.000000   0.000000
  222       11.450587     11.450587   0.000000   0.000000
  223       11.472000     11.472000   0.000000   0.000000
  224       11.472000     11.472000   0.000000   0.000000
  225       11.472000     11.472000   0.000000   0.000000
  226       11.624822     11.624822   0.000000   0.000000
  227       11.624822     11.624822   0.000000   0.000000
  228       11.624822     11.624822   0.000000   0.000000
  229       11.781385     11.781385   0.000000   0.000000
  230       11.781385     11.781385   0.000000   0.000000
  231       11.781385     11.781385   0.000000   0.000000
  232       11.792854     11.792854   0.000000   0.000000
  233       11.792854     11.792854   0.000000   0.000000
  234       11.792854     11.792854   0.000000   0.000000
  235       11.885951     11.885952   0.000000   0.000000
  236       11.979214     11.979214   0.000000   0.000000
  237       11.979214     11.979214   0.000000   0.000000
  238       12.398541     12.398532   0.000000   0.000000
  239       12.398583     12.398573   0.000000   0.000000
  240       12.398600     12.398599   0.000000   0.000000
 
  0.3333333E+00  0.0000000E+00  0.0000000E+00  0.2222222E+00
    1      -40.755814    -40.755811   1.000000   1.000000
    2      -40.752469    -40.752466   1.000000   1.000000
    3      -40.749327    -40.749324   1.000000   1.000000
    4      -40.749327    -40.749324   1.000000   1.000000
    5      -40.746342    -40.746339   1.000000   1.000000
    6      -40.746342    -40.746339   1.000000   1.000000
    7      -40.743521    -40.743518   1.000000   1.000000
    8      -40.740873    -40.740870   1.000000   1.000000
    9      -40.483458    -40.483458   1.000000   1.000000
   10      -40.481730    -40.481730   1.000000   1.000000
   11      -40.464724    -40.464724   1.000000   1.000000
   12      -40.463501    -40.463501   1.000000   1.000000
   13      -40.460887    -40.460887   1.000000   1.000000
   14      -40.460887    -40.460887   1.000000   1.000000
   15      -40.458345    -40.458345   1.000000   1.000000
   16      -40.458345    -40.458345   1.000000   1.000000
   17      -40.454023    -40.454022   1.000000   1.000000
   18      -40.451070    -40.451070   1.000000   1.000000
   19      -40.447729    -40.447729   1.000000   1.000000
   20      -40.446134    -40.446134   1.000000   1.000000
   21      -40.427761    -40.427761   1.000000   1.000000
   22      -40.427761    -40.427761   1.000000   1.000000
   23      -40.424928    -40.424928   1.000000   1.000000
   24      -40.419993    -40.419993   1.000000   1.000000
   25      -40.419993    -40.419993   1.000000   1.000000
   26      -40.419739    -40.419739   1.000000   1.000000
   27      -40.419181    -40.419181   1.000000   1.000000
   28      -40.417073    -40.417073   1.000000   1.000000
   29      -40.417073    -40.417073   1.000000   1.000000
   30      -40.416206    -40.416206   1.000000   1.000000
   31      -40.415386    -40.415385   1.000000   1.000000
   32      -40.415386    -40.415385   1.000000   1.000000
   33      -40.362296    -40.362296   1.000000   1.000000
   34      -40.361059    -40.361059   1.000000   1.000000
   35      -40.360680    -40.360680   1.000000   1.000000
   36      -40.358951    -40.358951   1.000000   1.000000
   37      -40.349801    -40.349801   1.000000   1.000000
   38      -40.349043    -40.349043   1.000000   1.000000
   39      -40.346165    -40.346164   1.000000   1.000000
   40      -40.346165    -40.346164   1.000000   1.000000
   41      -40.345658    -40.345658   1.000000   1.000000
   42      -40.345658    -40.345658   1.000000   1.000000
   43      -40.332672    -40.332672   1.000000   1.000000
   44      -40.331652    -40.331652   1.000000   1.000000
   45      -40.195393    -40.195392   1.000000   1.000000
   46      -40.195325    -40.195324   1.000000   1.000000
   47      -40.193826    -40.193824   1.000000   1.000000
   48      -40.190905    -40.190903   1.000000   1.000000
   49      -40.189489    -40.189488   1.000000   1.000000
   50      -40.189489    -40.189488   1.000000   1.000000
   51      -39.826318    -39.826318   1.000000   1.000000
   52      -39.826300    -39.826301   1.000000   1.000000
   53      -39.824705    -39.824705   1.000000   1.000000
   54      -39.821531    -39.821531   1.000000   1.000000
   55      -39.819993    -39.819994   1.000000   1.000000
   56      -39.819926    -39.819926   1.000000   1.000000
   57      -12.781111    -12.781110   1.000000   1.000000
   58      -12.778786    -12.778785   1.000000   1.000000
   59      -12.646867    -12.646866   1.000000   1.000000
   60      -12.643631    -12.643631   1.000000   1.000000
   61      -12.642234    -12.642233   1.000000   1.000000
   62      -12.642234    -12.642233   1.000000   1.000000
   63      -12.630419    -12.630418   1.000000   1.000000
   64      -12.630148    -12.630147   1.000000   1.000000
   65       -9.538769     -9.538768   1.000000   1.000000
   66       -9.538769     -9.538768   1.000000   1.000000
   67       -9.514338     -9.514338   1.000000   1.000000
   68       -9.502374     -9.502374   1.000000   1.000000
   69       -9.502374     -9.502374   1.000000   1.000000
   70       -9.491814     -9.491814   1.000000   1.000000
   71       -9.478110     -9.478110   1.000000   1.000000
   72       -9.478110     -9.478110   1.000000   1.000000
   73       -9.478025     -9.478025   1.000000   1.000000
   74       -9.457850     -9.457849   1.000000   1.000000
   75       -9.433765     -9.433765   1.000000   1.000000
   76       -9.431020     -9.431020   1.000000   1.000000
   77       -9.431020     -9.431020   1.000000   1.000000
   78       -9.423826     -9.423825   1.000000   1.000000
   79       -9.423826     -9.423825   1.000000   1.000000
   80       -9.413833     -9.413833   1.000000   1.000000
   81       -9.406094     -9.406093   1.000000   1.000000
   82       -9.406094     -9.406093   1.000000   1.000000
   83       -9.346670     -9.346670   1.000000   1.000000
   84       -9.346160     -9.346159   1.000000   1.000000
   85       -9.319681     -9.319681   1.000000   1.000000
   86       -9.305019     -9.305019   1.000000   1.000000
   87       -9.294925     -9.294924   1.000000   1.000000
   88       -9.294925     -9.294924   1.000000   1.000000
   89       -2.900883     -2.900883   1.000000   1.000000
   90       -2.764221     -2.764221   1.000000   1.000000
   91       -2.644871     -2.644871   1.000000   1.000000
   92       -2.644871     -2.644871   1.000000   1.000000
   93       -2.604867     -2.604867   1.000000   1.000000
   94       -2.553605     -2.553604   1.000000   1.000000
   95       -2.533205     -2.533205   1.000000   1.000000
   96       -2.530721     -2.530721   1.000000   1.000000
   97       -1.087173     -1.087172   1.000000   1.000000
   98       -1.087173     -1.087172   1.000000   1.000000
   99       -1.037164     -1.037164   1.000000   1.000000
  100       -1.037164     -1.037164   1.000000   1.000000
  101       -1.027711     -1.027711   1.000000   1.000000
  102       -1.026549     -1.026549   1.000000   1.000000
  103       -0.946760     -0.946760   1.000000   1.000000
  104       -0.826590     -0.826590   1.000000   1.000000
  105       -0.826590     -0.826590   1.000000   1.000000
  106       -0.822729     -0.822728   1.000000   1.000000
  107       -0.671073     -0.671072   1.000000   1.000000
  108       -0.671073     -0.671072   1.000000   1.000000
  109       -0.652990     -0.652989   1.000000   1.000000
  110       -0.640653     -0.640652   1.000000   1.000000
  111       -0.597063     -0.597062   1.000000   1.000000
  112       -0.597063     -0.597062   1.000000   1.000000
  113       -0.464071     -0.464071   1.000000   1.000000
  114       -0.434542     -0.434542   1.000000   1.000000
  115       -0.434542     -0.434542   1.000000   1.000000
  116       -0.405131     -0.405131   1.000000   1.000000
  117       -0.325812     -0.325812   1.000000   1.000000
  118       -0.325812     -0.325812   1.000000   1.000000
  119       -0.290485     -0.290485   1.000000   1.000000
  120       -0.263114     -0.263114   1.000000   1.000000
  121        1.163941      1.163941   1.000000   1.000000
  122        1.204405      1.204405   1.000000   1.000000
  123        1.312859      1.312859   1.000000   1.000000
  124        1.322075      1.322074   1.000000   1.000000
  125        1.369586      1.369586   1.000000   1.000000
  126        1.369586      1.369586   1.000000   1.000000
  127        1.395526      1.395526   1.000000   1.000000
  128        1.406635      1.406635   1.000000   1.000000
  129        1.424693      1.424693   1.000000   1.000000
  130        1.424693      1.424693   1.000000   1.000000
  131        1.456645      1.456645   1.000000   1.000000
  132        1.493500      1.493500   1.000000   1.000000
  133        1.592060      1.592060   1.000000   1.000000
  134        1.600825      1.600825   1.000000   1.000000
  135        1.643625      1.643625   1.000000   1.000000
  136        1.740676      1.740676   1.000000   1.000000
  137        1.792800      1.792800   1.000000   1.000000
  138        1.792800      1.792800   1.000000   1.000000
  139        1.845674      1.845674   1.000000   1.000000
  140        1.952705      1.952705   1.000000   1.000000
  141        1.952705      1.952705   1.000000   1.000000
  142        1.974420      1.974420   1.000000   1.000000
  143        1.975503      1.975503   1.000000   1.000000
  144        1.975503      1.975503   1.000000   1.000000
  145        1.984598      1.984598   1.000000   1.000000
  146        2.053064      2.053064   1.000000   1.000000
  147        2.060571      2.060571   1.000000   1.000000
  148        2.060571      2.060571   1.000000   1.000000
  149        2.150193      2.150193   1.000000   1.000000
  150        2.249762      2.249762   1.000000   1.000000
  151        2.293714      2.293714   1.000000   1.000000
  152        2.293714      2.293714   1.000000   1.000000
  153        2.337880      2.337879   1.000000   1.000000
  154        2.380640      2.380640   1.000000   1.000000
  155        2.382295      2.382295   1.000000   1.000000
  156        2.532246      2.532246   1.000000   1.000000
  157        2.532246      2.532246   1.000000   1.000000
  158        2.635521      2.635521   1.000000   1.000000
  159        2.635521      2.635521   1.000000   1.000000
  160        2.648830      2.648830   1.000000   1.000000
  161        2.743297      2.743297   1.000000   1.000000
  162        2.760296      2.760296   1.000000   1.000000
  163        2.760296      2.760296   1.000000   1.000000
  164        2.803794      2.803794   1.000000   1.000000
  165        2.901446      2.901446   1.000000   1.000000
  166        2.934564      2.934564   1.000000   1.000000
  167        2.934564      2.934564   1.000000   1.000000
  168        2.993281      2.993281   1.000000   1.000000
  169        3.106480      3.106480   1.000000   1.000000
  170        3.106480      3.106480   1.000000   1.000000
  171        3.135098      3.135098   1.000000   1.000000
  172        3.226387      3.226386   1.000000   1.000000
  173        3.238089      3.238088   1.000000   1.000000
  174        3.238089      3.238088   1.000000   1.000000
  175        3.325546      3.325546   1.000000   1.000000
  176        3.325546      3.325546   1.000000   1.000000
  177        3.339550      3.339550   1.000000   1.000000
  178        3.377086      3.377086   1.000000   1.000000
  179        3.425523      3.425523   1.000000   1.000000
  180        3.425523      3.425523   1.000000   1.000000
  181        3.555210      3.555210   1.000000   1.000000
  182        3.579208      3.579208   1.000000   1.000000
  183        3.579208      3.579208   1.000000   1.000000
  184        3.606982      3.606981   1.000000   1.000000
  185        7.300410      7.300410   0.000000   0.000000
  186        7.572796      7.572796   0.000000   0.000000
  187        7.572796      7.572796   0.000000   0.000000
  188        7.753594      7.753594   0.000000   0.000000
  189        8.256641      8.256640   0.000000   0.000000
  190        8.536580      8.536580   0.000000   0.000000
  191        8.565472      8.565472   0.000000   0.000000
  192        8.565472      8.565472   0.000000   0.000000
  193        8.699016      8.699016   0.000000   0.000000
  194        8.699016      8.699016   0.000000   0.000000
  195        8.873043      8.873043   0.000000   0.000000
  196        8.987087      8.987088   0.000000   0.000000
  197        9.032168      9.032168   0.000000   0.000000
  198        9.182840      9.182840   0.000000   0.000000
  199        9.182840      9.182840   0.000000   0.000000
  200        9.192993      9.192993   0.000000   0.000000
  201        9.435064      9.435064   0.000000   0.000000
  202        9.510725      9.510725   0.000000   0.000000
  203        9.599324      9.599324   0.000000   0.000000
  204        9.599324      9.599324   0.000000   0.000000
  205        9.651829      9.651829   0.000000   0.000000
  206        9.687784      9.687784   0.000000   0.000000
  207        9.687784      9.687784   0.000000   0.000000
  208        9.707234      9.707233   0.000000   0.000000
  209        9.925379      9.925378   0.000000   0.000000
  210       10.063907     10.063907   0.000000   0.000000
  211       10.118716     10.118716   0.000000   0.000000
  212       10.118716     10.118716   0.000000   0.000000
  213       10.238237     10.238236   0.000000   0.000000
  214       10.345538     10.345537   0.000000   0.000000
  215       10.408897     10.408898   0.000000   0.000000
  216       10.408897     10.408898   0.000000   0.000000
  217       11.216677     11.216677   0.000000   0.000000
  218       11.254154     11.254154   0.000000   0.000000
  219       11.323019     11.323019   0.000000   0.000000
  220       11.345680     11.345681   0.000000   0.000000
  221       11.410694     11.410694   0.000000   0.000000
  222       11.410694     11.410694   0.000000   0.000000
  223       11.539885     11.539886   0.000000   0.000000
  224       11.664238     11.664238   0.000000   0.000000
  225       11.670540     11.670540   0.000000   0.000000
  226       11.670540     11.670540   0.000000   0.000000
  227       11.724919     11.724919   0.000000   0.000000
  228       11.793380     11.793381   0.000000   0.000000
  229       11.793380     11.793381   0.000000   0.000000
  230       11.858520     11.858521   0.000000   0.000000
  231       11.888316     11.888316   0.000000   0.000000
  232       11.888316     11.888316   0.000000   0.000000
  233       11.971027     11.971027   0.000000   0.000000
  234       11.981017     11.981017   0.000000   0.000000
  235       12.013442     12.013442   0.000000   0.000000
  236       12.013442     12.013442   0.000000   0.000000
  237       12.103145     12.103145   0.000000   0.000000
  238       12.308695     12.308708   0.000000   0.000000
  239       12.324973     12.324999   0.000000   0.000000
  240       12.325021     12.325053   0.000000   0.000000
 
  0.3333333E+00  0.3333333E+00  0.0000000E+00  0.4444444E+00
    1      -40.754214    -40.754211   1.000000   1.000000
    2      -40.751056    -40.751053   1.000000   1.000000
    3      -40.750876    -40.750873   1.000000   1.000000
    4      -40.747908    -40.747906   1.000000   1.000000
    5      -40.747891    -40.747888   1.000000   1.000000
    6      -40.745095    -40.745092   1.000000   1.000000
    7      -40.744912    -40.744909   1.000000   1.000000
    8      -40.742244    -40.742241   1.000000   1.000000
    9      -40.481814    -40.481814   1.000000   1.000000
   10      -40.480867    -40.480867   1.000000   1.000000
   11      -40.464171    -40.464171   1.000000   1.000000
   12      -40.463827    -40.463827   1.000000   1.000000
   13      -40.463618    -40.463618   1.000000   1.000000
   14      -40.462106    -40.462106   1.000000   1.000000
   15      -40.459912    -40.459912   1.000000   1.000000
   16      -40.458629    -40.458629   1.000000   1.000000
   17      -40.450821    -40.450821   1.000000   1.000000
   18      -40.449723    -40.449723   1.000000   1.000000
   19      -40.446871    -40.446871   1.000000   1.000000
   20      -40.446256    -40.446256   1.000000   1.000000
   21      -40.428787    -40.428787   1.000000   1.000000
   22      -40.427275    -40.427275   1.000000   1.000000
   23      -40.424069    -40.424068   1.000000   1.000000
   24      -40.421257    -40.421257   1.000000   1.000000
   25      -40.420218    -40.420218   1.000000   1.000000
   26      -40.419332    -40.419332   1.000000   1.000000
   27      -40.418903    -40.418903   1.000000   1.000000
   28      -40.418082    -40.418082   1.000000   1.000000
   29      -40.417276    -40.417276   1.000000   1.000000
   30      -40.416817    -40.416817   1.000000   1.000000