Automatically generated mesh
       4
Reciprocal lattice
    0.00000000000000    0.00000000000000    0.00000000000000             1
    0.33333333333333    0.00000000000000    0.00000000000000             6
    0.33333333333333    0.33333333333333    0.00000000000000            12
    0.33333333333333    0.33333333333333    0.33333333333333             8
Tetrahedra
        11    0.00617283950617
        12         1         2         2         3
        18         2         2         3         3
        24         2         3         3         4
        12         2         3         3         3
        24         3         3         3         4
        18         3         3         4         4
        12         3         4         4         4
        12         2         2         3         4
        12         2         3         4         4
        12         1         2         3         4
         6         4         4         4         4
