 running on   96 total cores
 distrk:  each k-point on   96 cores,    1 groups
 distr:  one band on    6 cores,   16 groups
 using from now: INCAR     
 vasp.5.4.4.18Apr17-6-g9f103f2a35 (build Aug 12 2020 11:57:02) complex          
  
 POSCAR found type information on POSCAR  Li P  N 
 POSCAR found :  3 types and      96 ions
 scaLAPACK will be used
 LDA part: xc-table for Pade appr. of Perdew
 generate k-points for:    3    3    3
 POSCAR, INCAR and KPOINTS ok, starting setup
 FFT: planning ...
 WAVECAR not read
 entering main loop
       N       E                     dE             d eps       ncg     rms          rms(c)
DAV:   1     0.350785610259E+04    0.35079E+04   -0.15960E+05  3840   0.171E+03
DAV:   2     0.980297745049E+00   -0.35069E+04   -0.32412E+04  4224   0.476E+02
DAV:   3    -0.474820333256E+03   -0.47580E+03   -0.47073E+03  5360   0.149E+02
DAV:   4    -0.542957979638E+03   -0.68138E+02   -0.67616E+02  6960   0.508E+01
DAV:   5    -0.549631992281E+03   -0.66740E+01   -0.66710E+01  6176   0.134E+01    0.569E+01
RMM:   6    -0.492352216379E+03    0.57280E+02   -0.32317E+02  3909   0.228E+01    0.220E+01
RMM:   7    -0.487679820500E+03    0.46724E+01   -0.22095E+01  5716   0.660E+00    0.124E+01
RMM:   8    -0.487931482674E+03   -0.25166E+00   -0.10598E+01  4928   0.525E+00    0.431E+00
RMM:   9    -0.487422537403E+03    0.50895E+00   -0.40436E+00  5289   0.259E+00    0.141E+00
RMM:  10    -0.487531667642E+03   -0.10913E+00   -0.12143E+00  5995   0.125E+00    0.139E+00
RMM:  11    -0.487522627150E+03    0.90405E-02   -0.34690E-01  5509   0.786E-01    0.540E-01
RMM:  12    -0.487530067178E+03   -0.74400E-02   -0.15319E-01  5786   0.529E-01    0.274E-01
RMM:  13    -0.487534430308E+03   -0.43631E-02   -0.63445E-02  6123   0.300E-01    0.108E-01
RMM:  14    -0.487536794770E+03   -0.23645E-02   -0.25744E-02  6123   0.192E-01    0.116E-01
RMM:  15    -0.487537622971E+03   -0.82820E-03   -0.14031E-02  5359   0.142E-01    0.389E-02
RMM:  16    -0.487538283536E+03   -0.66057E-03   -0.65530E-03  5296   0.950E-02    0.518E-02
RMM:  17    -0.487538551069E+03   -0.26753E-03   -0.30551E-03  5230   0.625E-02    0.594E-02
RMM:  18    -0.487538694741E+03   -0.14367E-03   -0.13753E-03  5106   0.421E-02    0.781E-02
RMM:  19    -0.487538683424E+03    0.11317E-04   -0.63214E-04  4856   0.311E-02    0.443E-02
RMM:  20    -0.487538673179E+03    0.10245E-04   -0.35282E-04  4841   0.240E-02    0.189E-02
RMM:  21    -0.487538670299E+03    0.28803E-05   -0.20030E-04  4673   0.190E-02    0.645E-03
WARNING in EDDRMM: call to ZHEGV failed, returncode =   6  3      6
RMM:  22    -0.487538660578E+03    0.97210E-05   -0.12964E-04  4337   0.160E-02    0.252E-02
RMM:  23    -0.487538657706E+03    0.28716E-05   -0.32740E-05  2811   0.119E-02
   1 F= -.48753866E+03 E0= -.48753866E+03  d E =-.487539E+03  mag=    -0.0000
 curvature:   0.00 expect dE= 0.000E+00 dE for cont linesearch  0.000E+00
 trial: gam= 0.00000 g(F)=  0.102E-01 g(S)=  0.308E-01 ort = 0.000E+00 (trialstep = 0.100E+01)
 search vector abs. value=  0.410E-01
 bond charge predicted
       N       E                     dE             d eps       ncg     rms          rms(c)
DAV:   1    -0.487602152400E+03   -0.63492E-01   -0.31290E+00  4544   0.453E+00    0.146E+00
RMM:   2    -0.487564639470E+03    0.37513E-01   -0.18107E-01  4978   0.899E-01    0.622E-01
RMM:   3    -0.487565561361E+03   -0.92189E-03   -0.57398E-02  5616   0.417E-01    0.353E-01
RMM:   4    -0.487565006211E+03    0.55515E-03   -0.10935E-02  5080   0.197E-01    0.158E-01
RMM:   5    -0.487565098795E+03   -0.92584E-04   -0.59250E-03  5751   0.121E-01    0.797E-02
RMM:   6    -0.487565191957E+03   -0.93163E-04   -0.18551E-03  5923   0.643E-02    0.393E-02
RMM:   7    -0.487565251138E+03   -0.59181E-04   -0.78815E-04  5411   0.402E-02    0.110E-02
RMM:   8    -0.487565289891E+03   -0.38753E-04   -0.34322E-04  4954   0.260E-02    0.818E-03
RMM:   9    -0.487565302128E+03   -0.12237E-04   -0.95497E-05  3816   0.183E-02    0.648E-03
RMM:  10    -0.487565312909E+03   -0.10781E-04   -0.84797E-05  4179   0.159E-02    0.195E-03
RMM:  11    -0.487565312742E+03    0.16695E-06   -0.13412E-05  2950   0.127E-02
   2 F= -.48756531E+03 E0= -.48756531E+03  d E =-.266550E-01  mag=    -0.0000
 trial-energy change:   -0.026655  1 .order   -0.026887   -0.041030   -0.012744
 step:   1.4861(harm=  1.4506)  dis= 0.00490  next Energy=  -487.568384 (dE=-0.297E-01)
 bond charge predicted
       N       E                     dE             d eps       ncg     rms          rms(c)
DAV:   1    -0.487576583504E+03   -0.11271E-01   -0.73768E-01  4352   0.220E+00    0.711E-01
RMM:   2    -0.487567457249E+03    0.91263E-02   -0.43805E-02  4981   0.441E-01    0.299E-01
RMM:   3    -0.487567766546E+03   -0.30930E-03   -0.14401E-02  5646   0.208E-01    0.172E-01
RMM:   4    -0.487567664305E+03    0.10224E-03   -0.28753E-03  5162   0.100E-01    0.799E-02
RMM:   5    -0.487567692003E+03   -0.27699E-04   -0.15052E-03  5653   0.622E-02    0.385E-02
RMM:   6    -0.487567723918E+03   -0.31915E-04   -0.50660E-04  5378   0.342E-02    0.196E-02
RMM:   7    -0.487567744085E+03   -0.20167E-04   -0.21765E-04  5081   0.221E-02    0.741E-03
RMM:   8    -0.487567750685E+03   -0.66002E-05   -0.30928E-05  3175   0.154E-02
   3 F= -.48756775E+03 E0= -.48756775E+03  d E =-.290930E-01  mag=    -0.0000
 curvature:  -0.72 expect dE=-0.700E-02 dE for cont linesearch -0.632E-04
 trial: gam= 0.28276 g(F)=  0.824E-02 g(S)=  0.147E-02 ort =-0.190E-02 (trialstep = 0.110E+01)
 search vector abs. value=  0.119E-01
 bond charge predicted
       N       E                     dE             d eps       ncg     rms          rms(c)
DAV:   1    -0.487567141089E+03    0.60300E-03   -0.27911E+00  4096   0.393E+00    0.584E-01
RMM:   2    -0.487570781370E+03   -0.36403E-02   -0.71137E-02  4680   0.511E-01    0.210E-01
RMM:   3    -0.487569395688E+03    0.13857E-02   -0.82226E-03  5682   0.165E-01    0.143E-01
RMM:   4    -0.487569534358E+03   -0.13867E-03   -0.29982E-03  5680   0.760E-02    0.489E-02
RMM:   5    -0.487569622130E+03   -0.87772E-04   -0.11350E-03  5272   0.426E-02    0.198E-02
RMM:   6    -0.487569663553E+03   -0.41423E-04   -0.44215E-04  4905   0.267E-02    0.767E-03
RMM:   7    -0.487569674654E+03   -0.11101E-04   -0.12402E-04  3975   0.176E-02    0.386E-03
RMM:   8    -0.487569678524E+03   -0.38692E-05   -0.53594E-05  3500   0.139E-02
   4 F= -.48756968E+03 E0= -.48756968E+03  d E =-.192784E-02  mag=     0.0000
 trial-energy change:   -0.001928  1 .order   -0.002036   -0.010061    0.005988
 step:   0.6773(harm=  0.6878)  dis= 0.00183  next Energy=  -487.570830 (dE=-0.308E-02)
 bond charge predicted
       N       E                     dE             d eps       ncg     rms          rms(c)
DAV:   1    -0.487570514967E+03   -0.84031E-03   -0.40956E-01  4128   0.150E+00    0.223E-01
RMM:   2    -0.487571049581E+03   -0.53461E-03   -0.10140E-02  4624   0.193E-01    0.783E-02
RMM:   3    -0.487570816101E+03    0.23348E-03   -0.94135E-04  5259   0.587E-02    0.522E-02
RMM:   4    -0.487570827171E+03   -0.11069E-04   -0.33246E-04  4640   0.266E-02    0.180E-02
RMM:   5    -0.487570832962E+03   -0.57913E-05   -0.11240E-04  4205   0.156E-02    0.662E-03
RMM:   6    -0.487570832787E+03    0.17463E-06   -0.83037E-06  2810   0.105E-02
   5 F= -.48757083E+03 E0= -.48757083E+03  d E =-.308210E-02  mag=     0.0000
 curvature:  -0.45 expect dE=-0.279E-03 dE for cont linesearch -0.385E-07
 trial: gam=-0.00894 g(F)=  0.380E-03 g(S)=  0.246E-03 ort = 0.320E-04 (trialstep = 0.101E+01)
 search vector abs. value=  0.626E-03
 bond charge predicted
       N       E                     dE             d eps       ncg     rms          rms(c)
DAV:   1    -0.487571687933E+03   -0.85497E-03   -0.91532E-02  4256   0.746E-01    0.152E-01
RMM:   2    -0.487571371189E+03    0.31674E-03   -0.29331E-03  4756   0.113E-01    0.593E-02
RMM:   3    -0.487571343744E+03    0.27445E-04   -0.67068E-04  5376   0.465E-02    0.347E-02
RMM:   4    -0.487571337864E+03    0.58796E-05   -0.97413E-05  4461   0.184E-02
   6 F= -.48757134E+03 E0= -.48757134E+03  d E =-.505077E-03  mag=    -0.0000
 trial-energy change:   -0.000505  1 .order   -0.000479   -0.000633   -0.000325
 step:   2.0800(harm=  2.0800)  dis= 0.00111  next Energy=  -487.571483 (dE=-0.650E-03)
 bond charge predicted
       N       E                     dE             d eps       ncg     rms          rms(c)
DAV:   1    -0.487571784764E+03   -0.44102E-03   -0.10044E-01  4096   0.783E-01    0.159E-01
RMM:   2    -0.487571460877E+03    0.32389E-03   -0.33289E-03  4744   0.120E-01    0.631E-02
RMM:   3    -0.487571442073E+03    0.18805E-04   -0.86639E-04  5438   0.522E-02    0.379E-02
RMM:   4    -0.487571440981E+03    0.10913E-05   -0.18247E-04  4885   0.226E-02    0.206E-02
RMM:   5    -0.487571434873E+03    0.61081E-05   -0.40644E-06  2737   0.130E-02
   7 F= -.48757143E+03 E0= -.48757143E+03  d E =-.602086E-03  mag=     0.0000
 curvature:  -1.04 expect dE=-0.665E-03 dE for cont linesearch -0.817E-05
 trial: gam= 1.13315 g(F)=  0.637E-03 g(S)=  0.177E-05 ort =-0.701E-04 (trialstep = 0.598E+00)
 search vector abs. value=  0.128E-02
 bond charge predicted
       N       E                     dE             d eps       ncg     rms          rms(c)
DAV:   1    -0.487571652911E+03   -0.21193E-03   -0.80460E-02  4096   0.718E-01    0.918E-02
RMM:   2    -0.487571640701E+03    0.12210E-04   -0.18819E-03  4905   0.996E-02    0.400E-02
RMM:   3    -0.487571663120E+03   -0.22419E-04   -0.55534E-04  5561   0.421E-02    0.231E-02
RMM:   4    -0.487571669179E+03   -0.60591E-05   -0.14372E-04  4793   0.201E-02    0.140E-02
RMM:   5    -0.487571665250E+03    0.39293E-05   -0.73316E-06  2830   0.133E-02
   8 F= -.48757167E+03 E0= -.48757167E+03  d E =-.230377E-03  mag=     0.0000
 trial-energy change:   -0.000230  1 .order   -0.000257   -0.000335   -0.000180
 step:   1.2903(harm=  1.2903)  dis= 0.00151  next Energy=  -487.571796 (dE=-0.361E-03)
 bond charge predicted
       N       E                     dE             d eps       ncg     rms          rms(c)
DAV:   1    -0.487571705784E+03   -0.36605E-04   -0.10773E-01  4096   0.831E-01    0.107E-01
RMM:   2    -0.487571680810E+03    0.24974E-04   -0.25254E-03  4916   0.115E-01    0.460E-02
RMM:   3    -0.487571709646E+03   -0.28836E-04   -0.72767E-04  5640   0.487E-02    0.263E-02
RMM:   4    -0.487571719755E+03   -0.10108E-04   -0.20474E-04  5306   0.232E-02    0.160E-02
RMM:   5    -0.487571715100E+03    0.46544E-05    0.25334E-06  2658   0.142E-02
   9 F= -.48757172E+03 E0= -.48757172E+03  d E =-.280227E-03  mag=     0.0000
 curvature:  -1.48 expect dE=-0.382E-03 dE for cont linesearch -0.153E-05
 trial: gam= 0.14524 g(F)=  0.977E-04 g(S)=  0.160E-03 ort =-0.365E-04 (trialstep = 0.736E+00)
 search vector abs. value=  0.275E-03
 bond charge predicted
       N       E                     dE             d eps       ncg     rms          rms(c)
DAV:   1    -0.487571875986E+03   -0.15623E-03   -0.21333E-02  4160   0.375E-01    0.647E-02
RMM:   2    -0.487571835412E+03    0.40574E-04   -0.67782E-04  4982   0.581E-02    0.278E-02
RMM:   3    -0.487571842418E+03   -0.70064E-05   -0.22352E-04  5366   0.271E-02    0.140E-02
RMM:   4    -0.487571844402E+03   -0.19841E-05   -0.42256E-05  3861   0.149E-02
  10 F= -.48757184E+03 E0= -.48757184E+03  d E =-.129302E-03  mag=    -0.0000
 trial-energy change:   -0.000129  1 .order   -0.000153   -0.000186   -0.000120
 step:   2.0594(harm=  2.0594)  dis= 0.00083  next Energy=  -487.571975 (dE=-0.260E-03)
 bond charge predicted
       N       E                     dE             d eps       ncg     rms          rms(c)
DAV:   1    -0.487571925735E+03   -0.83316E-04   -0.68708E-02  4064   0.674E-01    0.113E-01
RMM:   2    -0.487571808339E+03    0.11740E-03   -0.20413E-03  5015   0.103E-01    0.494E-02
RMM:   3    -0.487571833085E+03   -0.24745E-04   -0.65162E-04  5756   0.460E-02    0.277E-02
RMM:   4    -0.487571841073E+03   -0.79878E-05   -0.17711E-04  5063   0.231E-02    0.160E-02
RMM:   5    -0.487571841536E+03   -0.46355E-06   -0.31853E-05  3719   0.147E-02
  11 F= -.48757184E+03 E0= -.48757184E+03  d E =-.126436E-03  mag=    -0.0000
 curvature:  -1.12 expect dE=-0.292E-03 dE for cont linesearch -0.246E-04
 trial: gam= 0.00000 g(F)=  0.233E-03 g(S)=  0.281E-04 ort =-0.777E-04 (trialstep = 0.100E+01)
 search vector abs. value=  0.261E-03
 bond charge predicted
       N       E                     dE             d eps       ncg     rms          rms(c)
DAV:   1    -0.487571920150E+03   -0.79077E-04   -0.46852E-02  4128   0.477E-01    0.104E-01
RMM:   2    -0.487571962982E+03   -0.42833E-04   -0.11534E-03  4618   0.655E-02    0.393E-02
RMM:   3    -0.487571934893E+03    0.28089E-04   -0.12255E-04  4203   0.216E-02    0.195E-02
RMM:   4    -0.487571933780E+03    0.11134E-05   -0.14982E-05  3203   0.112E-02
  12 F= -.48757193E+03 E0= -.48757193E+03  d E =-.922436E-04  mag=     0.0000
 trial-energy change:   -0.000092  1 .order   -0.000095   -0.000261    0.000071
 step:   0.7878(harm=  0.7878)  dis= 0.00027  next Energy=  -487.571944 (dE=-0.103E-03)
 bond charge predicted
       N       E                     dE             d eps       ncg     rms          rms(c)
DAV:   1    -0.487571955994E+03   -0.21100E-04   -0.23334E-03  4656   0.104E-01    0.227E-02
RMM:   2    -0.487571956202E+03   -0.20801E-06   -0.53524E-05  3434   0.142E-02
  13 F= -.48757196E+03 E0= -.48757196E+03  d E =-.114666E-03  mag=    -0.0000
 curvature:  -0.39 expect dE=-0.155E-04 dE for cont linesearch -0.521E-05
 trial: gam= 0.00000 g(F)=  0.321E-04 g(S)=  0.733E-05 ort =-0.587E-04 (trialstep = 0.958E+00)
 search vector abs. value=  0.394E-04
 reached required accuracy - stopping structural energy minimisation
