unknown system                          
           1
     9.402378    0.000000    0.000000
     0.000000    9.402378    0.000000
     0.000000    0.000000    9.402378
   Li   P    N 
  56   8  32
Direct configuration=     1
   0.00000000  0.50000000  0.50000000
   0.50000000  0.00000000  0.00000000
   0.00000000  0.00000000  0.50000000
   0.00000000  0.50000000  0.00000000
   0.50000000  0.00000000  0.50000000
   0.50000000  0.50000000  0.00000000
   0.25000000  0.00000000  0.50000000
   0.00000000  0.50000000  0.75000000
   0.00000000  0.50000000  0.25000000
   0.50000000  0.25000000  0.00000000
   0.50000000  0.75000000  0.00000000
   0.75000000  0.00000000  0.50000000
   0.22537400  0.22537400  0.22537400
   0.27462600  0.72537400  0.27462600
   0.27462600  0.27462600  0.72537400
   0.72537400  0.27462600  0.27462600
   0.77462600  0.77462600  0.22537400
   0.22537400  0.77462600  0.77462600
   0.77462600  0.22537400  0.77462600
   0.72537400  0.72537400  0.72537400
   0.25333600  0.23708300  0.97516400
   0.24666400  0.47516400  0.26291700
   0.24666400  0.52483600  0.73708300
   0.52483600  0.26291700  0.75333600
   0.47516400  0.26291700  0.24666400
   0.73708300  0.24666400  0.52483600
   0.26291700  0.75333600  0.52483600
   0.97516400  0.25333600  0.23708300
   0.23708300  0.97516400  0.25333600
   0.76291700  0.02483600  0.25333600
   0.97516400  0.74666400  0.76291700
   0.76291700  0.97516400  0.74666400
   0.02483600  0.74666400  0.23708300
   0.02483600  0.25333600  0.76291700
   0.23708300  0.02483600  0.74666400
   0.25333600  0.76291700  0.02483600
   0.74666400  0.23708300  0.02483600
   0.74666400  0.76291700  0.97516400
   0.26291700  0.24666400  0.47516400
   0.73708300  0.75333600  0.47516400
   0.52483600  0.73708300  0.24666400
   0.47516400  0.73708300  0.75333600
   0.75333600  0.52483600  0.26291700
   0.75333600  0.47516400  0.73708300
   0.26438700  0.00000000  0.00000000
   0.23561300  0.50000000  0.50000000
   0.50000000  0.50000000  0.76438700
   0.50000000  0.50000000  0.23561300
   0.50000000  0.23561300  0.50000000
   0.50000000  0.76438700  0.50000000
   0.00000000  0.26438700  0.00000000
   0.00000000  0.00000000  0.26438700
   0.00000000  0.73561300  0.00000000
   0.00000000  0.00000000  0.73561300
   0.73561300  0.00000000  0.00000000
   0.76438700  0.50000000  0.50000000
   0.50000000  0.50000000  0.50000000
   0.00000000  0.00000000  0.00000000
   0.50000000  0.00000000  0.75000000
   0.75000000  0.50000000  0.00000000
   0.25000000  0.50000000  0.00000000
   0.00000000  0.25000000  0.50000000
   0.00000000  0.75000000  0.50000000
   0.50000000  0.00000000  0.25000000
   0.60346100  0.60346100  0.60346100
   0.89653900  0.10346100  0.89653900
   0.10346100  0.89653900  0.89653900
   0.89653900  0.89653900  0.10346100
   0.60346100  0.39653900  0.39653900
   0.39653900  0.39653900  0.60346100
   0.39653900  0.60346100  0.39653900
   0.10346100  0.10346100  0.10346100
   0.35073100  0.38738500  0.09942100
   0.14926900  0.59942100  0.11261500
   0.14926900  0.40057900  0.88738500
   0.40057900  0.11261500  0.85073100
   0.59942100  0.11261500  0.14926900
   0.88738500  0.14926900  0.40057900
   0.11261500  0.85073100  0.40057900
   0.09942100  0.35073100  0.38738500
   0.38738500  0.09942100  0.35073100
   0.61261500  0.90057900  0.35073100
   0.09942100  0.64926900  0.61261500
   0.61261500  0.09942100  0.64926900
   0.90057900  0.64926900  0.38738500
   0.90057900  0.35073100  0.61261500
   0.38738500  0.90057900  0.64926900
   0.35073100  0.61261500  0.90057900
   0.64926900  0.38738500  0.90057900
   0.64926900  0.61261500  0.09942100
   0.11261500  0.14926900  0.59942100
   0.88738500  0.85073100  0.59942100
   0.40057900  0.88738500  0.14926900
   0.59942100  0.88738500  0.85073100
   0.85073100  0.40057900  0.11261500
   0.85073100  0.59942100  0.88738500
unknown system                          
           1
     9.381008    0.000000   -0.000000
    -0.000000    9.381008   -0.000000
    -0.000000   -0.000000    9.381008
   Li   P    N 
  56   8  32
Direct configuration=     2
  -0.00000000  0.50000000  0.50000000
   0.50000000  0.00000000  0.00000000
   0.00000000  0.00000000  0.50000000
   0.00000000  0.50000000  0.00000000
   0.50000000  0.00000000  0.50000000
   0.50000000  0.50000000  0.00000000
   0.25000000  0.00000000  0.50000000
  -0.00000000  0.50000000  0.75000000
   0.00000000  0.50000000  0.25000000
   0.50000000  0.25000000  0.00000000
   0.50000000  0.75000000  0.00000000
   0.75000000  0.00000000  0.50000000
   0.22522343  0.22522343  0.22522343
   0.27477657  0.72522343  0.27477657
   0.27477657  0.27477657  0.72522343
   0.72522343  0.27477657  0.27477657
   0.77477657  0.77477657  0.22522343
   0.22522343  0.77477657  0.77477657
   0.77477657  0.22522343  0.77477657
   0.72522343  0.72522343  0.72522343
   0.25330637  0.23743398  0.97517856
   0.24669363  0.47517856  0.26256602
   0.24669363  0.52482144  0.73743398
   0.52482144  0.26256602  0.75330637
   0.47517856  0.26256602  0.24669363
   0.73743398  0.24669363  0.52482144
   0.26256602  0.75330637  0.52482144
   0.97517856  0.25330637  0.23743398
   0.23743398  0.97517856  0.25330637
   0.76256602  0.02482144  0.25330637
   0.97517856  0.74669363  0.76256602
   0.76256602  0.97517856  0.74669363
   0.02482144  0.74669363  0.23743398
   0.02482144  0.25330637  0.76256602
   0.23743398  0.02482144  0.74669363
   0.25330637  0.76256602  0.02482144
   0.74669363  0.23743398  0.02482144
   0.74669363  0.76256602  0.97517856
   0.26256602  0.24669363  0.47517856
   0.73743398  0.75330637  0.47517856
   0.52482144  0.73743398  0.24669363
   0.47517856  0.73743398  0.75330637
   0.75330637  0.52482144  0.26256602
   0.75330637  0.47517856  0.73743398
   0.26414592  0.00000000  0.00000000
   0.23585408  0.50000000  0.50000000
   0.50000000  0.50000000  0.76414592
   0.50000000  0.50000000  0.23585408
   0.50000000  0.23585408  0.50000000
   0.50000000  0.76414592  0.50000000
   0.00000000  0.26414592  0.00000000
   0.00000000  0.00000000  0.26414592
   0.00000000  0.73585408  0.00000000
   0.00000000  0.00000000  0.73585408
   0.73585408  0.00000000  0.00000000
   0.76414592  0.50000000  0.50000000
   0.50000000  0.50000000  0.50000000
  -0.00000000  0.00000000  0.00000000
   0.50000000  0.00000000  0.75000000
   0.75000000  0.50000000  0.00000000
   0.25000000  0.50000000  0.00000000
   0.00000000  0.25000000  0.50000000
   0.00000000  0.75000000  0.50000000
   0.50000000  0.00000000  0.25000000
   0.60365108  0.60365108  0.60365108
   0.89634892  0.10365108  0.89634892
   0.10365108  0.89634892  0.89634892
   0.89634892  0.89634892  0.10365108
   0.60365108  0.39634892  0.39634892
   0.39634892  0.39634892  0.60365108
   0.39634892  0.60365108  0.39634892
   0.10365108  0.10365108  0.10365108
   0.35078155  0.38729734  0.09951772
   0.14921845  0.59951772  0.11270266
   0.14921845  0.40048228  0.88729734
   0.40048228  0.11270266  0.85078155
   0.59951772  0.11270266  0.14921845
   0.88729734  0.14921845  0.40048228
   0.11270266  0.85078155  0.40048228
   0.09951772  0.35078155  0.38729734
   0.38729734  0.09951772  0.35078155
   0.61270266  0.90048228  0.35078155
   0.09951772  0.64921845  0.61270266
   0.61270266  0.09951772  0.64921845
   0.90048228  0.64921845  0.38729734
   0.90048228  0.35078155  0.61270266
   0.38729734  0.90048228  0.64921845
   0.35078155  0.61270266  0.90048228
   0.64921845  0.38729734  0.90048228
   0.64921845  0.61270266  0.09951772
   0.11270266  0.14921845  0.59951772
   0.88729734  0.85078155  0.59951772
   0.40048228  0.88729734  0.14921845
   0.59951772  0.88729734  0.85078155
   0.85078155  0.40048228  0.11270266
   0.85078155  0.59951772  0.88729734
unknown system                          
           1
     9.370619    0.000000   -0.000000
    -0.000000    9.370619   -0.000000
    -0.000000   -0.000000    9.370619
   Li   P    N 
  56   8  32
Direct configuration=     3
  -0.00000000  0.50000000  0.50000000
   0.50000000  0.00000000  0.00000000
   0.00000000  0.00000000  0.50000000
   0.00000000  0.50000000  0.00000000
   0.50000000  0.00000000  0.50000000
   0.50000000  0.50000000  0.00000000
   0.25000000  0.00000000  0.50000000
  -0.00000000  0.50000000  0.75000000
   0.00000000  0.50000000  0.25000000
   0.50000000  0.25000000  0.00000000
   0.50000000  0.75000000  0.00000000
   0.75000000  0.00000000  0.50000000
   0.22515007  0.22515007  0.22515007
   0.27484993  0.72515007  0.27484993
   0.27484993  0.27484993  0.72515007
   0.72515007  0.27484993  0.27484993
   0.77484993  0.77484993  0.22515007
   0.22515007  0.77484993  0.77484993
   0.77484993  0.22515007  0.77484993
   0.72515007  0.72515007  0.72515007
   0.25329193  0.23760500  0.97518565
   0.24670807  0.47518565  0.26239500
   0.24670807  0.52481435  0.73760500
   0.52481435  0.26239500  0.75329193
   0.47518565  0.26239500  0.24670807
   0.73760500  0.24670807  0.52481435
   0.26239500  0.75329193  0.52481435
   0.97518565  0.25329193  0.23760500
   0.23760500  0.97518565  0.25329193
   0.76239500  0.02481435  0.25329193
   0.97518565  0.74670807  0.76239500
   0.76239500  0.97518565  0.74670807
   0.02481435  0.74670807  0.23760500
   0.02481435  0.25329193  0.76239500
   0.23760500  0.02481435  0.74670807
   0.25329193  0.76239500  0.02481435
   0.74670807  0.23760500  0.02481435
   0.74670807  0.76239500  0.97518565
   0.26239500  0.24670807  0.47518565
   0.73760500  0.75329193  0.47518565
   0.52481435  0.73760500  0.24670807
   0.47518565  0.73760500  0.75329193
   0.75329193  0.52481435  0.26239500
   0.75329193  0.47518565  0.73760500
   0.26402845  0.00000000  0.00000000
   0.23597155  0.50000000  0.50000000
   0.50000000  0.50000000  0.76402845
   0.50000000  0.50000000  0.23597155
   0.50000000  0.23597155  0.50000000
   0.50000000  0.76402845  0.50000000
  -0.00000000  0.26402845  0.00000000
  -0.00000000  0.00000000  0.26402845
   0.00000000  0.73597155  0.00000000
   0.00000000  0.00000000  0.73597155
   0.73597155  0.00000000  0.00000000
   0.76402845  0.50000000  0.50000000
   0.50000000  0.50000000  0.50000000
  -0.00000000  0.00000000  0.00000000
   0.50000000  0.00000000  0.75000000
   0.75000000  0.50000000  0.00000000
   0.25000000  0.50000000  0.00000000
   0.00000000  0.25000000  0.50000000
   0.00000000  0.75000000  0.50000000
   0.50000000  0.00000000  0.25000000
   0.60374370  0.60374370  0.60374370
   0.89625630  0.10374370  0.89625630
   0.10374370  0.89625630  0.89625630
   0.89625630  0.89625630  0.10374370
   0.60374370  0.39625630  0.39625630
   0.39625630  0.39625630  0.60374370
   0.39625630  0.60374370  0.39625630
   0.10374370  0.10374370  0.10374370
   0.35080617  0.38725462  0.09956485
   0.14919383  0.59956485  0.11274538
   0.14919383  0.40043515  0.88725462
   0.40043515  0.11274538  0.85080617
   0.59956485  0.11274538  0.14919383
   0.88725462  0.14919383  0.40043515
   0.11274538  0.85080617  0.40043515
   0.09956485  0.35080617  0.38725462
   0.38725462  0.09956485  0.35080617
   0.61274538  0.90043515  0.35080617
   0.09956485  0.64919383  0.61274538
   0.61274538  0.09956485  0.64919383
   0.90043515  0.64919383  0.38725462
   0.90043515  0.35080617  0.61274538
   0.38725462  0.90043515  0.64919383
   0.35080617  0.61274538  0.90043515
   0.64919383  0.38725462  0.90043515
   0.64919383  0.61274538  0.09956485
   0.11274538  0.14919383  0.59956485
   0.88725462  0.85080617  0.59956485
   0.40043515  0.88725462  0.14919383
   0.59956485  0.88725462  0.85080617
   0.85080617  0.40043515  0.11274538
   0.85080617  0.59956485  0.88725462
unknown system                          
           1
     9.369111    0.000000   -0.000000
     0.000000    9.369111   -0.000000
    -0.000000   -0.000000    9.369111
   Li   P    N 
  56   8  32
Direct configuration=     4
  -0.00000000  0.50000000  0.50000000
   0.50000000  0.00000000  0.00000000
  -0.00000000  0.00000000  0.50000000
  -0.00000000  0.50000000  0.00000000
   0.50000000  0.00000000  0.50000000
   0.50000000  0.50000000  0.00000000
   0.25000000  0.00000000  0.50000000
  -0.00000000  0.50000000  0.75000000
  -0.00000000  0.50000000  0.25000000
   0.50000000  0.25000000  0.00000000
   0.50000000  0.75000000  0.00000000
   0.75000000  0.00000000  0.50000000
   0.22509192  0.22509192  0.22509192
   0.27490808  0.72509192  0.27490808
   0.27490808  0.27490808  0.72509192
   0.72509192  0.27490808  0.27490808
   0.77490808  0.77490808  0.22509192
   0.22509192  0.77490808  0.77490808
   0.77490808  0.22509192  0.77490808
   0.72509192  0.72509192  0.72509192
   0.25332113  0.23783949  0.97517655
   0.24667887  0.47517655  0.26216051
   0.24667887  0.52482345  0.73783949
   0.52482345  0.26216051  0.75332113
   0.47517655  0.26216051  0.24667887
   0.73783949  0.24667887  0.52482345
   0.26216051  0.75332113  0.52482345
   0.97517655  0.25332113  0.23783949
   0.23783949  0.97517655  0.25332113
   0.76216051  0.02482345  0.25332113
   0.97517655  0.74667887  0.76216051
   0.76216051  0.97517655  0.74667887
   0.02482345  0.74667887  0.23783949
   0.02482345  0.25332113  0.76216051
   0.23783949  0.02482345  0.74667887
   0.25332113  0.76216051  0.02482345
   0.74667887  0.23783949  0.02482345
   0.74667887  0.76216051  0.97517655
   0.26216051  0.24667887  0.47517655
   0.73783949  0.75332113  0.47517655
   0.52482345  0.73783949  0.24667887
   0.47517655  0.73783949  0.75332113
   0.75332113  0.52482345  0.26216051
   0.75332113  0.47517655  0.73783949
   0.26387388  0.00000000  0.00000000
   0.23612612  0.50000000  0.50000000
   0.50000000  0.50000000  0.76387388
   0.50000000  0.50000000  0.23612612
   0.50000000  0.23612612  0.50000000
   0.50000000  0.76387388  0.50000000
  -0.00000000  0.26387388  0.00000000
  -0.00000000  0.00000000  0.26387388
  -0.00000000  0.73612612  0.00000000
  -0.00000000  0.00000000  0.73612612
   0.73612612  0.00000000  0.00000000
   0.76387388  0.50000000  0.50000000
   0.50000000  0.50000000  0.50000000
  -0.00000000  0.00000000  0.00000000
   0.50000000  0.00000000  0.75000000
   0.75000000  0.50000000  0.00000000
   0.25000000  0.50000000  0.00000000
  -0.00000000  0.25000000  0.50000000
  -0.00000000  0.75000000  0.50000000
   0.50000000  0.00000000  0.25000000
   0.60383479  0.60383479  0.60383479
   0.89616521  0.10383479  0.89616521
   0.10383479  0.89616521  0.89616521
   0.89616521  0.89616521  0.10383479
   0.60383479  0.39616521  0.39616521
   0.39616521  0.39616521  0.60383479
   0.39616521  0.60383479  0.39616521
   0.10383479  0.10383479  0.10383479
   0.35108194  0.38693862  0.09982817
   0.14891806  0.59982817  0.11306138
   0.14891806  0.40017183  0.88693862
   0.40017183  0.11306138  0.85108194
   0.59982817  0.11306138  0.14891806
   0.88693862  0.14891806  0.40017183
   0.11306138  0.85108194  0.40017183
   0.09982817  0.35108194  0.38693862
   0.38693862  0.09982817  0.35108194
   0.61306138  0.90017183  0.35108194
   0.09982817  0.64891806  0.61306138
   0.61306138  0.09982817  0.64891806
   0.90017183  0.64891806  0.38693862
   0.90017183  0.35108194  0.61306138
   0.38693862  0.90017183  0.64891806
   0.35108194  0.61306138  0.90017183
   0.64891806  0.38693862  0.90017183
   0.64891806  0.61306138  0.09982817
   0.11306138  0.14891806  0.59982817
   0.88693862  0.85108194  0.59982817
   0.40017183  0.88693862  0.14891806
   0.59982817  0.88693862  0.85108194
   0.85108194  0.40017183  0.11306138
   0.85108194  0.59982817  0.88693862
unknown system                          
           1
     9.369688    0.000000   -0.000000
     0.000000    9.369688   -0.000000
    -0.000000   -0.000000    9.369688
   Li   P    N 
  56   8  32
Direct configuration=     5
  -0.00000000  0.50000000  0.50000000
   0.50000000  0.00000000  0.00000000
  -0.00000000  0.00000000  0.50000000
  -0.00000000  0.50000000  0.00000000
   0.50000000  0.00000000  0.50000000
   0.50000000  0.50000000  0.00000000
   0.25000000  0.00000000  0.50000000
  -0.00000000  0.50000000  0.75000000
  -0.00000000  0.50000000  0.25000000
   0.50000000  0.25000000  0.00000000
   0.50000000  0.75000000  0.00000000
   0.75000000  0.00000000  0.50000000
   0.22511418  0.22511418  0.22511418
   0.27488582  0.72511418  0.27488582
   0.27488582  0.27488582  0.72511418
   0.72511418  0.27488582  0.27488582
   0.77488582  0.77488582  0.22511418
   0.22511418  0.77488582  0.77488582
   0.77488582  0.22511418  0.77488582
   0.72511418  0.72511418  0.72511418
   0.25330995  0.23774974  0.97518003
   0.24669005  0.47518003  0.26225026
   0.24669005  0.52481997  0.73774974
   0.52481997  0.26225026  0.75330995
   0.47518003  0.26225026  0.24669005
   0.73774974  0.24669005  0.52481997
   0.26225026  0.75330995  0.52481997
   0.97518003  0.25330995  0.23774974
   0.23774974  0.97518003  0.25330995
   0.76225026  0.02481997  0.25330995
   0.97518003  0.74669005  0.76225026
   0.76225026  0.97518003  0.74669005
   0.02481997  0.74669005  0.23774974
   0.02481997  0.25330995  0.76225026
   0.23774974  0.02481997  0.74669005
   0.25330995  0.76225026  0.02481997
   0.74669005  0.23774974  0.02481997
   0.74669005  0.76225026  0.97518003
   0.26225026  0.24669005  0.47518003
   0.73774974  0.75330995  0.47518003
   0.52481997  0.73774974  0.24669005
   0.47518003  0.73774974  0.75330995
   0.75330995  0.52481997  0.26225026
   0.75330995  0.47518003  0.73774974
   0.26393305  0.00000000  0.00000000
   0.23606695  0.50000000  0.50000000
   0.50000000  0.50000000  0.76393305
   0.50000000  0.50000000  0.23606695
   0.50000000  0.23606695  0.50000000
   0.50000000  0.76393305  0.50000000
  -0.00000000  0.26393305  0.00000000
  -0.00000000  0.00000000  0.26393305
  -0.00000000  0.73606695  0.00000000
  -0.00000000  0.00000000  0.73606695
   0.73606695  0.00000000  0.00000000
   0.76393305  0.50000000  0.50000000
   0.50000000  0.50000000  0.50000000
  -0.00000000  0.00000000  0.00000000
   0.50000000  0.00000000  0.75000000
   0.75000000  0.50000000  0.00000000
   0.25000000  0.50000000  0.00000000
  -0.00000000  0.25000000  0.50000000
  -0.00000000  0.75000000  0.50000000
   0.50000000  0.00000000  0.25000000
   0.60379993  0.60379993  0.60379993
   0.89620007  0.10379993  0.89620007
   0.10379993  0.89620007  0.89620007
   0.89620007  0.89620007  0.10379993
   0.60379993  0.39620007  0.39620007
   0.39620007  0.39620007  0.60379993
   0.39620007  0.60379993  0.39620007
   0.10379993  0.10379993  0.10379993
   0.35097639  0.38705957  0.09972738
   0.14902361  0.59972738  0.11294043
   0.14902361  0.40027262  0.88705957
   0.40027262  0.11294043  0.85097639
   0.59972738  0.11294043  0.14902361
   0.88705957  0.14902361  0.40027262
   0.11294043  0.85097639  0.40027262
   0.09972738  0.35097639  0.38705957
   0.38705957  0.09972738  0.35097639
   0.61294043  0.90027262  0.35097639
   0.09972738  0.64902361  0.61294043
   0.61294043  0.09972738  0.64902361
   0.90027262  0.64902361  0.38705957
   0.90027262  0.35097639  0.61294043
   0.38705957  0.90027262  0.64902361
   0.35097639  0.61294043  0.90027262
   0.64902361  0.38705957  0.90027262
   0.64902361  0.61294043  0.09972738
   0.11294043  0.14902361  0.59972738
   0.88705957  0.85097639  0.59972738
   0.40027262  0.88705957  0.14902361
   0.59972738  0.88705957  0.85097639
   0.85097639  0.40027262  0.11294043
   0.85097639  0.59972738  0.88705957
unknown system                          
           1
     9.371627   -0.000000   -0.000000
     0.000000    9.371627   -0.000000
    -0.000000   -0.000000    9.371627
   Li   P    N 
  56   8  32
Direct configuration=     6
  -0.00000000  0.50000000  0.50000000
   0.50000000  0.00000000  0.00000000
  -0.00000000  0.00000000  0.50000000
  -0.00000000  0.50000000  0.00000000
   0.50000000  0.00000000  0.50000000
   0.50000000  0.50000000  0.00000000
   0.25000000  0.00000000  0.50000000
  -0.00000000  0.50000000  0.75000000
  -0.00000000  0.50000000  0.25000000
   0.50000000  0.25000000  0.00000000
   0.50000000  0.75000000  0.00000000
   0.75000000  0.00000000  0.50000000
   0.22512590  0.22512590  0.22512590
   0.27487410  0.72512590  0.27487410
   0.27487410  0.27487410  0.72512590
   0.72512590  0.27487410  0.27487410
   0.77487410  0.77487410  0.22512590
   0.22512590  0.77487410  0.77487410
   0.77487410  0.22512590  0.77487410
   0.72512590  0.72512590  0.72512590
   0.25333995  0.23779546  0.97516265
   0.24666005  0.47516265  0.26220454
   0.24666005  0.52483735  0.73779546
   0.52483735  0.26220454  0.75333995
   0.47516265  0.26220454  0.24666005
   0.73779546  0.24666005  0.52483735
   0.26220454  0.75333995  0.52483735
   0.97516265  0.25333995  0.23779546
   0.23779546  0.97516265  0.25333995
   0.76220454  0.02483735  0.25333995
   0.97516265  0.74666005  0.76220454
   0.76220454  0.97516265  0.74666005
   0.02483735  0.74666005  0.23779546
   0.02483735  0.25333995  0.76220454
   0.23779546  0.02483735  0.74666005
   0.25333995  0.76220454  0.02483735
   0.74666005  0.23779546  0.02483735
   0.74666005  0.76220454  0.97516265
   0.26220454  0.24666005  0.47516265
   0.73779546  0.75333995  0.47516265
   0.52483735  0.73779546  0.24666005
   0.47516265  0.73779546  0.75333995
   0.75333995  0.52483735  0.26220454
   0.75333995  0.47516265  0.73779546
   0.26387616  0.00000000  0.00000000
   0.23612384  0.50000000  0.50000000
   0.50000000  0.50000000  0.76387616
   0.50000000  0.50000000  0.23612384
   0.50000000  0.23612384  0.50000000
   0.50000000  0.76387616  0.50000000
  -0.00000000  0.26387616  0.00000000
  -0.00000000  0.00000000  0.26387616
  -0.00000000  0.73612384  0.00000000
  -0.00000000  0.00000000  0.73612384
   0.73612384  0.00000000  0.00000000
   0.76387616  0.50000000  0.50000000
   0.50000000  0.50000000  0.50000000
  -0.00000000  0.00000000  0.00000000
   0.50000000  0.00000000  0.75000000
   0.75000000  0.50000000  0.00000000
   0.25000000  0.50000000  0.00000000
  -0.00000000  0.25000000  0.50000000
  -0.00000000  0.75000000  0.50000000
   0.50000000  0.00000000  0.25000000
   0.60374201  0.60374201  0.60374201
   0.89625799  0.10374201  0.89625799
   0.10374201  0.89625799  0.89625799
   0.89625799  0.89625799  0.10374201
   0.60374201  0.39625799  0.39625799
   0.39625799  0.39625799  0.60374201
   0.39625799  0.60374201  0.39625799
   0.10374201  0.10374201  0.10374201
   0.35097506  0.38706515  0.09970684
   0.14902494  0.59970684  0.11293485
   0.14902494  0.40029316  0.88706515
   0.40029316  0.11293485  0.85097506
   0.59970684  0.11293485  0.14902494
   0.88706515  0.14902494  0.40029316
   0.11293485  0.85097506  0.40029316
   0.09970684  0.35097506  0.38706515
   0.38706515  0.09970684  0.35097506
   0.61293485  0.90029316  0.35097506
   0.09970684  0.64902494  0.61293485
   0.61293485  0.09970684  0.64902494
   0.90029316  0.64902494  0.38706515
   0.90029316  0.35097506  0.61293485
   0.38706515  0.90029316  0.64902494
   0.35097506  0.61293485  0.90029316
   0.64902494  0.38706515  0.90029316
   0.64902494  0.61293485  0.09970684
   0.11293485  0.14902494  0.59970684
   0.88706515  0.85097506  0.59970684
   0.40029316  0.88706515  0.14902494
   0.59970684  0.88706515  0.85097506
   0.85097506  0.40029316  0.11293485
   0.85097506  0.59970684  0.88706515
unknown system                          
           1
     9.373667   -0.000000    0.000000
     0.000000    9.373667    0.000000
    -0.000000    0.000000    9.373667
   Li   P    N 
  56   8  32
Direct configuration=     7
  -0.00000000  0.50000000  0.50000000
   0.50000000  0.00000000  0.00000000
  -0.00000000  0.00000000  0.50000000
  -0.00000000  0.50000000  0.00000000
   0.50000000  0.00000000  0.50000000
   0.50000000  0.50000000  0.00000000
   0.25000000  0.00000000  0.50000000
  -0.00000000  0.50000000  0.75000000
  -0.00000000  0.50000000  0.25000000
   0.50000000  0.25000000  0.00000000
   0.50000000  0.75000000  0.00000000
   0.75000000  0.00000000  0.50000000
   0.22513824  0.22513824  0.22513824
   0.27486176  0.72513824  0.27486176
   0.27486176  0.27486176  0.72513824
   0.72513824  0.27486176  0.27486176
   0.77486176  0.77486176  0.22513824
   0.22513824  0.77486176  0.77486176
   0.77486176  0.22513824  0.77486176
   0.72513824  0.72513824  0.72513824
   0.25337152  0.23784358  0.97514435
   0.24662848  0.47514435  0.26215642
   0.24662848  0.52485565  0.73784358
   0.52485565  0.26215642  0.75337152
   0.47514435  0.26215642  0.24662848
   0.73784358  0.24662848  0.52485565
   0.26215642  0.75337152  0.52485565
   0.97514435  0.25337152  0.23784358
   0.23784358  0.97514435  0.25337152
   0.76215642  0.02485565  0.25337152
   0.97514435  0.74662848  0.76215642
   0.76215642  0.97514435  0.74662848
   0.02485565  0.74662848  0.23784358
   0.02485565  0.25337152  0.76215642
   0.23784358  0.02485565  0.74662848
   0.25337152  0.76215642  0.02485565
   0.74662848  0.23784358  0.02485565
   0.74662848  0.76215642  0.97514435
   0.26215642  0.24662848  0.47514435
   0.73784358  0.75337152  0.47514435
   0.52485565  0.73784358  0.24662848
   0.47514435  0.73784358  0.75337152
   0.75337152  0.52485565  0.26215642
   0.75337152  0.47514435  0.73784358
   0.26381628  0.00000000  0.00000000
   0.23618372  0.50000000  0.50000000
   0.50000000  0.50000000  0.76381628
   0.50000000  0.50000000  0.23618372
   0.50000000  0.23618372  0.50000000
   0.50000000  0.76381628  0.50000000
  -0.00000000  0.26381628  0.00000000
  -0.00000000  0.00000000  0.26381628
  -0.00000000  0.73618372  0.00000000
  -0.00000000  0.00000000  0.73618372
   0.73618372  0.00000000  0.00000000
   0.76381628  0.50000000  0.50000000
   0.50000000  0.50000000  0.50000000
  -0.00000000  0.00000000  0.00000000
   0.50000000  0.00000000  0.75000000
   0.75000000  0.50000000  0.00000000
   0.25000000  0.50000000  0.00000000
  -0.00000000  0.25000000  0.50000000
  -0.00000000  0.75000000  0.50000000
   0.50000000  0.00000000  0.25000000
   0.60368104  0.60368104  0.60368104
   0.89631896  0.10368104  0.89631896
   0.10368104  0.89631896  0.89631896
   0.89631896  0.89631896  0.10368104
   0.60368104  0.39631896  0.39631896
   0.39631896  0.39631896  0.60368104
   0.39631896  0.60368104  0.39631896
   0.10368104  0.10368104  0.10368104
   0.35097367  0.38707101  0.09968521
   0.14902633  0.59968521  0.11292899
   0.14902633  0.40031479  0.88707101
   0.40031479  0.11292899  0.85097367
   0.59968521  0.11292899  0.14902633
   0.88707101  0.14902633  0.40031479
   0.11292899  0.85097367  0.40031479
   0.09968521  0.35097367  0.38707101
   0.38707101  0.09968521  0.35097367
   0.61292899  0.90031479  0.35097367
   0.09968521  0.64902633  0.61292899
   0.61292899  0.09968521  0.64902633
   0.90031479  0.64902633  0.38707101
   0.90031479  0.35097367  0.61292899
   0.38707101  0.90031479  0.64902633
   0.35097367  0.61292899  0.90031479
   0.64902633  0.38707101  0.90031479
   0.64902633  0.61292899  0.09968521
   0.11292899  0.14902633  0.59968521
   0.88707101  0.85097367  0.59968521
   0.40031479  0.88707101  0.14902633
   0.59968521  0.88707101  0.85097367
   0.85097367  0.40031479  0.11292899
   0.85097367  0.59968521  0.88707101
unknown system                          
           1
     9.374867   -0.000000    0.000000
     0.000000    9.374867    0.000000
    -0.000000    0.000000    9.374867
   Li   P    N 
  56   8  32
Direct configuration=     8
  -0.00000000  0.50000000  0.50000000
   0.50000000  0.00000000  0.00000000
  -0.00000000  0.00000000  0.50000000
  -0.00000000  0.50000000  0.00000000
   0.50000000  0.00000000  0.50000000
   0.50000000  0.50000000  0.00000000
   0.25000000  0.00000000  0.50000000
  -0.00000000  0.50000000  0.75000000
  -0.00000000  0.50000000  0.25000000
   0.50000000  0.25000000  0.00000000
   0.50000000  0.75000000  0.00000000
   0.75000000  0.00000000  0.50000000
   0.22512840  0.22512840  0.22512840
   0.27487160  0.72512840  0.27487160
   0.27487160  0.27487160  0.72512840
   0.72512840  0.27487160  0.27487160
   0.77487160  0.77487160  0.22512840
   0.22512840  0.77487160  0.77487160
   0.77487160  0.22512840  0.77487160
   0.72512840  0.72512840  0.72512840
   0.25339716  0.23789444  0.97512704
   0.24660284  0.47512704  0.26210556
   0.24660284  0.52487296  0.73789444
   0.52487296  0.26210556  0.75339716
   0.47512704  0.26210556  0.24660284
   0.73789444  0.24660284  0.52487296
   0.26210556  0.75339716  0.52487296
   0.97512704  0.25339716  0.23789444
   0.23789444  0.97512704  0.25339716
   0.76210556  0.02487296  0.25339716
   0.97512704  0.74660284  0.76210556
   0.76210556  0.97512704  0.74660284
   0.02487296  0.74660284  0.23789444
   0.02487296  0.25339716  0.76210556
   0.23789444  0.02487296  0.74660284
   0.25339716  0.76210556  0.02487296
   0.74660284  0.23789444  0.02487296
   0.74660284  0.76210556  0.97512704
   0.26210556  0.24660284  0.47512704
   0.73789444  0.75339716  0.47512704
   0.52487296  0.73789444  0.24660284
   0.47512704  0.73789444  0.75339716
   0.75339716  0.52487296  0.26210556
   0.75339716  0.47512704  0.73789444
   0.26374170  0.00000000  0.00000000
   0.23625830  0.50000000  0.50000000
   0.50000000  0.50000000  0.76374170
   0.50000000  0.50000000  0.23625830
   0.50000000  0.23625830  0.50000000
   0.50000000  0.76374170  0.50000000
  -0.00000000  0.26374170  0.00000000
  -0.00000000  0.00000000  0.26374170
  -0.00000000  0.73625830  0.00000000
  -0.00000000  0.00000000  0.73625830
   0.73625830  0.00000000  0.00000000
   0.76374170  0.50000000  0.50000000
   0.50000000  0.50000000  0.50000000
  -0.00000000  0.00000000  0.00000000
   0.50000000  0.00000000  0.75000000
   0.75000000  0.50000000  0.00000000
   0.25000000  0.50000000  0.00000000
  -0.00000000  0.25000000  0.50000000
  -0.00000000  0.75000000  0.50000000
   0.50000000  0.00000000  0.25000000
   0.60369718  0.60369718  0.60369718
   0.89630282  0.10369718  0.89630282
   0.10369718  0.89630282  0.89630282
   0.89630282  0.89630282  0.10369718
   0.60369718  0.39630282  0.39630282
   0.39630282  0.39630282  0.60369718