    4    4    1    2
  0.1033244E+02  0.3003333E-09  0.3300365E-09  0.4988583E-09  0.5000000E-15
  1.000000000000000E-004
  CAR 
 unknown system                          
     18    463     14
 
  0.0000000E+00  0.0000000E+00  0.0000000E+00  0.1082251E-02
    1      -42.451906    -42.451746   1.000000   1.000000
    2      -21.379962    -21.379967   1.000000   1.000000
    3      -16.977830    -16.977836   1.000000   1.000000
    4       -6.421399     -6.421361   1.000000   1.000000
    5       -4.609366     -4.609361   1.000000   1.000000
    6       -4.290237     -4.290238   1.000000   1.000000
    7       -3.250624     -3.250610   1.000000   1.000000
    8        1.244450      1.244462   1.000000   1.000000
    9        1.628497      1.628505   1.000000   1.000000
   10        7.123550      7.123556   0.000000   0.000000
   11        7.306501      7.306486   0.000000   0.000000
   12        7.466025      7.466030   0.000000   0.000000
   13       11.088405     11.088322   0.000000   0.000000
   14       12.274833     12.274896   0.000000   0.000000
 
  0.8333333E-01  0.6861961E-18 -0.1726082E-16  0.2164502E-02
    1      -42.451049    -42.450889   1.000000   1.000000
    2      -21.355731    -21.355736   1.000000   1.000000
    3      -16.963035    -16.963042   1.000000   1.000000
    4       -6.377614     -6.377577   1.000000   1.000000
    5       -4.647940     -4.647935   1.000000   1.000000
    6       -4.414692     -4.414691   1.000000   1.000000
    7       -3.247590     -3.247576   1.000000   1.000000
    8        1.186348      1.186360   1.000000   1.000000
    9        1.453687      1.453695   1.000000   1.000000
   10        7.105451      7.105456   0.000000   0.000000
   11        7.222832      7.222839   0.000000   0.000000
   12        7.676642      7.676617   0.000000   0.000000
   13       11.293744     11.293699   0.000000   0.000000
   14       12.314478     12.314406   0.000000   0.000000
 
  0.1666667E+00  0.1164473E-16 -0.3473785E-16  0.2164502E-02
    1      -42.448687    -42.448526   1.000000   1.000000
    2      -21.288483    -21.288488   1.000000   1.000000
    3      -16.922435    -16.922442   1.000000   1.000000
    4       -6.259804     -6.259769   1.000000   1.000000
    5       -4.831407     -4.831404   1.000000   1.000000
    6       -4.649675     -4.649670   1.000000   1.000000
    7       -3.236487     -3.236472   1.000000   1.000000
    8        0.950430      0.950439   1.000000   1.000000
    9        1.078342      1.078354   1.000000   1.000000
   10        6.863412      6.863421   0.000000   0.000000
   11        7.131451      7.131460   0.000000   0.000000
   12        8.265441      8.265189   0.000000   0.000000
   13       11.831833     11.831672   0.000000   0.000000
   14       12.434632     12.434596   0.000000   0.000000
 
  0.2500000E+00  0.6223935E-16 -0.4572221E-16  0.2164502E-02
    1      -42.445425    -42.445264   1.000000   1.000000
    2      -21.194280    -21.194289   1.000000   1.000000
    3      -16.866318    -16.866325   1.000000   1.000000
    4       -6.127043     -6.127015   1.000000   1.000000
    5       -5.184081     -5.184073   1.000000   1.000000
    6       -4.781963     -4.781956   1.000000   1.000000
    7       -3.222311     -3.222295   1.000000   1.000000
    8        0.377677      0.377685   1.000000   1.000000
    9        0.866130      0.866143   1.000000   1.000000
   10        6.405474      6.405490   0.000000   0.000000
   11        7.101399      7.101410   0.000000   0.000000
   12        8.971148      8.970658   0.000000   0.000000
   13       12.353598     12.352089   0.000000   0.000000
   14       12.760170     12.760077   0.000000   0.000000
 
  0.3333333E+00 -0.8606649E-18 -0.7619840E-16  0.2164502E-02
    1      -42.442177    -42.442016   1.000000   1.000000
    2      -21.097582    -21.097592   1.000000   1.000000
    3      -16.809627    -16.809634   1.000000   1.000000
    4       -6.136534     -6.136518   1.000000   1.000000
    5       -5.353604     -5.353586   1.000000   1.000000
    6       -4.887086     -4.887079   1.000000   1.000000
    7       -3.219427     -3.219409   1.000000   1.000000
    8       -0.182741     -0.182731   1.000000   1.000000
    9        0.687844      0.687858   1.000000   1.000000
   10        5.932540      5.932561   0.000000   0.000000
   11        7.064643      7.064656   0.000000   0.000000
   12        9.426899      9.426690   0.000000   0.000000
   13       12.456195     12.456347   0.000000   0.000000
   14       13.327056     13.341564   0.000000   0.000000
 
  0.4166667E+00  0.2018277E-16 -0.6096822E-16  0.2164502E-02
    1      -42.439795    -42.439635   1.000000   1.000000
    2      -21.024895    -21.024903   1.000000   1.000000
    3      -16.767691    -16.767698   1.000000   1.000000
    4       -6.295555     -6.295545   1.000000   1.000000
    5       -5.278796     -5.278774   1.000000   1.000000
    6       -4.962269     -4.962261   1.000000   1.000000
    7       -3.234615     -3.234595   1.000000   1.000000
    8       -0.579832     -0.579822   1.000000   1.000000
    9        0.569328      0.569342   1.000000   1.000000
   10        5.578469      5.578494   0.000000   0.000000
   11        7.035260      7.035274   0.000000   0.000000
   12        9.520183      9.520091   0.000000   0.000000
   13       12.378707     12.378740   0.000000   0.000000
   14       14.416740     14.201227   0.000000   0.000000
 
  0.5000000E+00  0.1244787E-15 -0.9144441E-16  0.1082251E-02
    1      -42.438936    -42.438775   1.000000   1.000000
    2      -20.997894    -20.997903   1.000000   1.000000
    3      -16.752295    -16.752302   1.000000   1.000000
    4       -6.374221     -6.374212   1.000000   1.000000
    5       -5.216566     -5.216546   1.000000   1.000000
    6       -4.991822     -4.991814   1.000000   1.000000
    7       -3.246867     -3.246846   1.000000   1.000000
    8       -0.722625     -0.722616   1.000000   1.000000
    9        0.528642      0.528655   1.000000   1.000000
   10        5.446896      5.446925   0.000000   0.000000
   11        7.024326      7.024341   0.000000   0.000000
   12        9.504016      9.503887   0.000000   0.000000
   13       12.342678     12.342479   0.000000   0.000000
   14       14.609190     14.392234   0.000000   0.000000
 
 -0.1356496E-16  0.9090909E-01 -0.2468490E-16  0.2164502E-02
    1      -42.451332    -42.451172   1.000000   1.000000
    2      -21.361384    -21.361390   1.000000   1.000000
    3      -16.966328    -16.966335   1.000000   1.000000
    4       -6.383388     -6.383350   1.000000   1.000000
    5       -4.741112     -4.741106   1.000000   1.000000
    6       -4.308065     -4.308065   1.000000   1.000000
    7       -3.249765     -3.249750   1.000000   1.000000
    8        1.071851      1.071863   1.000000   1.000000
    9        1.581328      1.581335   1.000000   1.000000
   10        6.986328      6.986338   0.000000   0.000000
   11        7.340669      7.340672   0.000000   0.000000
   12        7.682408      7.682345   0.000000   0.000000
   13       11.309675     11.309627   0.000000   0.000000
   14       12.330982     12.331013   0.000000   0.000000
 
  0.8333333E-01  0.9090909E-01 -0.3368199E-16  0.2164502E-02
    1      -42.451053    -42.450893   1.000000   1.000000
    2      -21.355424    -21.355429   1.000000   1.000000
    3      -16.965199    -16.965206   1.000000   1.000000
    4       -6.362001     -6.361964   1.000000   1.000000
    5       -4.665984     -4.665978   1.000000   1.000000
    6       -4.410522     -4.410523   1.000000   1.000000
    7       -3.268573     -3.268558   1.000000   1.000000
    8        1.145125      1.145137   1.000000   1.000000
    9        1.517888      1.517896   1.000000   1.000000
   10        7.010125      7.010132   0.000000   0.000000
   11        7.365423      7.365429   0.000000   0.000000
   12        7.668912      7.668866   0.000000   0.000000
   13       11.252519     11.252470   0.000000   0.000000
   14       12.287656     12.287779   0.000000   0.000000
 
  0.1666667E+00  0.9090909E-01 -0.6008518E-16  0.2164502E-02
    1      -42.449224    -42.449064   1.000000   1.000000
    2      -21.304644    -21.304649   1.000000   1.000000
    3      -16.936846    -16.936852   1.000000   1.000000
    4       -6.261430     -6.261395   1.000000   1.000000
    5       -4.739402     -4.739399   1.000000   1.000000
    6       -4.644544     -4.644540   1.000000   1.000000
    7       -3.279429     -3.279413   1.000000   1.000000
    8        0.960163      0.960174   1.000000   1.000000
    9        1.298344      1.298355   1.000000   1.000000
   10        6.929169      6.929177   0.000000   0.000000
   11        7.220816      7.220826   0.000000   0.000000
   12        8.092101      8.091910   0.000000   0.000000
   13       11.585507     11.585451   0.000000   0.000000
   14       12.338612     12.338677   0.000000   0.000000
 
  0.2500000E+00  0.9090909E-01 -0.4066427E-16  0.2164502E-02
    1      -42.446270    -42.446110   1.000000   1.000000
    2      -21.220804    -21.220814   1.000000   1.000000
    3      -16.888453    -16.888460   1.000000   1.000000
    4       -6.121142     -6.121112   1.000000   1.000000
    5       -5.104522     -5.104516   1.000000   1.000000
    6       -4.732648     -4.732642   1.000000   1.000000
    7       -3.280625     -3.280609   1.000000   1.000000
    8        0.496717      0.496728   1.000000   1.000000
    9        1.084842      1.084853   1.000000   1.000000
   10        6.567533      6.567546   0.000000   0.000000
   11        7.151855      7.151866   0.000000   0.000000
   12        8.776592      8.776289   0.000000   0.000000
   13       12.087050     12.086598   0.000000   0.000000
   14       12.590029     12.590230   0.000000   0.000000
 
  0.3333333E+00  0.9090909E-01 -0.8766793E-16  0.2164502E-02
    1      -42.443045    -42.442884   1.000000   1.000000
    2      -21.125214    -21.125224   1.000000   1.000000
    3      -16.832623    -16.832630   1.000000   1.000000
    4       -6.072051     -6.072033   1.000000   1.000000
    5       -5.336968     -5.336952   1.000000   1.000000
    6       -4.849657     -4.849650   1.000000   1.000000
    7       -3.282554     -3.282537   1.000000   1.000000
    8       -0.027419     -0.027408   1.000000   1.000000
    9        0.863121      0.863134   1.000000   1.000000
   10        6.100348      6.100368   0.000000   0.000000
   11        7.079477      7.079489   0.000000   0.000000
   12        9.441500      9.441338   0.000000   0.000000
   13       12.388068     12.387593   0.000000   0.000000
   14       13.012032     13.009318   0.000000   0.000000
 
  0.4166667E+00  0.9090909E-01 -0.1583542E-15  0.2164502E-02
    1      -42.440372    -42.440211   1.000000   1.000000
    2      -21.043396    -21.043404   1.000000   1.000000
    3      -16.784320    -16.784327   1.000000   1.000000
    4       -6.211451     -6.211441   1.000000   1.000000
    5       -5.289131     -5.289110   1.000000   1.000000
    6       -4.963913     -4.963905   1.000000   1.000000
    7       -3.296882     -3.296863   1.000000   1.000000
    8       -0.447575     -0.447564   1.000000   1.000000
    9        0.659825      0.659839   1.000000   1.000000
   10        5.697685      5.697707   0.000000   0.000000
   11        6.990509      6.990522   0.000000   0.000000
   12        9.751058      9.750881   0.000000   0.000000
   13       12.458908     12.458878   0.000000   0.000000
   14       13.384878     13.361563   0.000000   0.000000
 
  0.5000000E+00  0.9090909E-01 -0.6985899E-16  0.2164502E-02
    1      -42.438995    -42.438834   1.000000   1.000000
    2      -20.999175    -20.999182   1.000000   1.000000
    3      -16.756818    -16.756825   1.000000   1.000000
    4       -6.327799     -6.327792   1.000000   1.000000
    5       -5.220016     -5.219997   1.000000   1.000000
    6       -5.012104     -5.012093   1.000000   1.000000
    7       -3.311641     -3.311620   1.000000   1.000000
    8       -0.659472     -0.659461   1.000000   1.000000
    9        0.511781      0.511795   1.000000   1.000000
   10        5.478027      5.478053   0.000000   0.000000
   11        6.912640      6.912653   0.000000   0.000000
   12        9.790438      9.790450   0.000000   0.000000
   13       12.420045     12.420037   0.000000   0.000000
   14       14.278695     14.217250   0.000000   0.000000
 
 -0.4166667E+00  0.9090909E-01 -0.2733437E-17  0.2164502E-02
    1      -42.439266    -42.439105   1.000000   1.000000
    2      -21.005972    -21.005980   1.000000   1.000000
    3      -16.757819    -16.757827   1.000000   1.000000
    4       -6.308108     -6.308099   1.000000   1.000000
    5       -5.248575     -5.248557   1.000000   1.000000
    6       -5.014745     -5.014734   1.000000   1.000000
    7       -3.289590     -3.289570   1.000000   1.000000
    8       -0.621805     -0.621794   1.000000   1.000000
    9        0.451002      0.451016   1.000000   1.000000
   10        5.502493      5.502518   0.000000   0.000000
   11        6.874650      6.874663   0.000000   0.000000
   12        9.805507      9.805491   0.000000   0.000000
   13       12.455682     12.455775   0.000000   0.000000
   14       14.045817     14.016300   0.000000   0.000000
 
 -0.3333333E+00  0.9090909E-01 -0.3740037E-16  0.2164502E-02
    1      -42.441118    -42.440957   1.000000   1.000000
    2      -21.061465    -21.061473   1.000000   1.000000
    3      -16.787137    -16.787144   1.000000   1.000000
    4       -6.188234     -6.188221   1.000000   1.000000
    5       -5.292132     -5.292113   1.000000   1.000000
    6       -5.009105     -5.009097   1.000000   1.000000
    7       -3.238325     -3.238306   1.000000   1.000000
    8       -0.358302     -0.358292   1.000000   1.000000
    9        0.511395      0.511409   1.000000   1.000000
   10        5.753670      5.753692   0.000000   0.000000
   11        6.890914      6.890926   0.000000   0.000000
   12        9.781505      9.781421   0.000000   0.000000
   13       12.540326     12.541313   0.000000   0.000000
   14       13.718711     13.710527   0.000000   0.000000
 
 -0.2500000E+00  0.9090909E-01 -0.5267392E-16  0.2164502E-02
    1      -42.444051    -42.443890   1.000000   1.000000
    2      -21.149020    -21.149029   1.000000   1.000000
    3      -16.836551    -16.836558   1.000000   1.000000
    4       -6.125544     -6.125522   1.000000   1.000000
    5       -5.250047     -5.250034   1.000000   1.000000
    6       -4.902932     -4.902926   1.000000   1.000000
    7       -3.206348     -3.206331   1.000000   1.000000
    8        0.049159      0.049168   1.000000   1.000000
    9        0.716899      0.716912   1.000000   1.000000
   10        6.146477      6.146496   0.000000   0.000000
   11        6.954787      6.954797   0.000000   0.000000
   12        9.480434      9.479923   0.000000   0.000000
   13       12.611646     12.611688   0.000000   0.000000
   14       13.095244     13.092683   0.000000   0.000000
 
 -0.1666667E+00  0.9090909E-01 -0.2795363E-16  0.2164502E-02
    1      -42.447313    -42.447153   1.000000   1.000000
    2      -21.243915    -21.243924   1.000000   1.000000
    3      -16.892533    -16.892540   1.000000   1.000000
    4       -6.208544     -6.208513   1.000000   1.000000
    5       -5.074097     -5.074090   1.000000   1.000000
    6       -4.678641     -4.678638   1.000000   1.000000
    7       -3.208736     -3.208720   1.000000   1.000000
    8        0.476896      0.476905   1.000000   1.000000
    9        1.049437      1.049448   1.000000   1.000000
   10        6.561952      6.561967   0.000000   0.000000
   11        7.046189      7.046197   0.000000   0.000000
   12        8.831579      8.831168   0.000000   0.000000
   13       12.288932     12.288876   0.000000   0.000000
   14       12.669597     12.667359   0.000000   0.000000
 
 -0.8333333E-01  0.9090909E-01 -0.1045767E-15  0.2164502E-02
    1      -42.449960    -42.449799   1.000000   1.000000
    2      -21.320974    -21.320980   1.000000   1.000000
    3      -16.939871    -16.939877   1.000000   1.000000
    4       -6.322791     -6.322756   1.000000   1.000000
    5       -4.885833     -4.885828   1.000000   1.000000
    6       -4.427232     -4.427231   1.000000   1.000000
    7       -3.228429     -3.228414   1.000000   1.000000
    8        0.832802      0.832813   1.000000   1.000000
    9        1.394358      1.394366   1.000000   1.000000
   10        6.870085      6.870097   0.000000   0.000000
   11        7.169838      7.169842   0.000000   0.000000
   12        8.134460      8.134210   0.000000   0.000000
   13       11.709490     11.709441   0.000000   0.000000
   14       12.463236     12.462639   0.000000   0.000000
 
 -0.4147767E-16  0.1818182E+00 -0.3577439E-16  0.2164502E-02
    1      -42.449765    -42.449604   1.000000   1.000000
    2      -21.310759    -21.310769   1.000000   1.000000
    3      -16.935408    -16.935415   1.000000   1.000000
    4       -6.282955     -6.282921   1.000000   1.000000
    5       -5.070891     -5.070885   1.000000   1.000000
    6       -4.353835     -4.353835   1.000000   1.000000
    7       -3.247961     -3.247945   1.000000   1.000000
    8        0.620168      0.620179   1.000000   1.000000
    9        1.471211      1.471219   1.000000   1.000000
   10        6.644472      6.644488   0.000000   0.000000
   11        7.321890      7.321894   0.000000   0.000000
   12        8.336799      8.336685   0.000000   0.000000
   13       11.835194     11.835001   0.000000   0.000000
   14       12.546421     12.546446   0.000000   0.000000
 
  0.8333333E-01  0.1818182E+00 -0.4543390E-16  0.2164502E-02
    1      -42.450002    -42.449841   1.000000   1.000000
    2      -21.320399    -21.320405   1.000000   1.000000
    3      -16.945810    -16.945816   1.000000   1.000000
    4       -6.275335     -6.275300   1.000000   1.000000
    5       -4.915592     -4.915585   1.000000   1.000000
    6       -4.440420     -4.440420   1.000000   1.000000
    7       -3.287947     -3.287931   1.000000   1.000000
    8        0.832906      0.832918   1.000000   1.000000
    9        1.454474      1.454483   1.000000   1.000000
   10        6.812640      6.812654   0.000000   0.000000
   11        7.281689      7.281694   0.000000   0.000000
   12        8.169121      8.168911   0.000000   0.000000
   13       11.598977     11.598937   0.000000   0.000000
   14       12.419107     12.419214   0.000000   0.000000
 
  0.1666667E+00  0.1818182E+00 -0.6918740E-16  0.2164502E-02
    1      -42.448743    -42.448583   1.000000   1.000000
    2      -21.287689    -21.287698   1.000000   1.000000
    3      -16.931462    -16.931469   1.000000   1.000000
    4       -6.197696     -6.197664   1.000000   1.000000
    5       -4.890872     -4.890865   1.000000   1.000000
    6       -4.629632     -4.629630   1.000000   1.000000
    7       -3.327293     -3.327277   1.000000   1.000000
    8        0.735079      0.735091   1.000000   1.000000
    9        1.394123      1.394132   1.000000   1.000000
   10        6.885134      6.885145   0.000000   0.000000
   11        7.102526      7.102535   0.000000   0.000000
   12        8.370130      8.369823   0.000000   0.000000
   13       11.633584     11.634111   0.000000   0.000000
   14       12.448926     12.448975   0.000000   0.000000
 
  0.2500000E+00  0.1818182E+00 -0.2762496E-16  0.2164502E-02
    1      -42.446346    -42.446185   1.000000   1.000000
    2      -21.220637    -21.220644   1.000000   1.000000
    3      -16.896108    -16.896115   1.000000   1.000000
    4       -6.082123     -6.082095   1.000000   1.000000
    5       -5.123041     -5.123033   1.000000   1.000000
    6       -4.718223     -4.718217   1.000000   1.000000
    7       -3.359189     -3.359172   1.000000   1.000000
    8        0.362914      0.362927   1.000000   1.000000
    9        1.308458      1.308468   1.000000   1.000000
   10        6.633374      6.633384   0.000000   0.000000
   11        7.028405      7.028417   0.000000   0.000000
   12        8.886345      8.885714   0.000000   0.000000
   13       11.864147     11.864180   0.000000   0.000000
   14       12.702106     12.703046   0.000000   0.000000
 
  0.3333333E+00  0.1818182E+00 -0.1076836E-15  0.2164502E-02
    1      -42.443446    -42.443285   1.000000   1.000000
    2      -21.135739    -21.135748   1.000000   1.000000
    3      -16.848940    -16.848947   1.000000   1.000000
    4       -6.039670     -6.039652   1.000000   1.000000
    5       -5.289362     -5.289346   1.000000   1.000000
    6       -4.835919     -4.835912   1.000000   1.000000
    7       -3.390226     -3.390209   1.000000   1.000000
    8       -0.064141     -0.064126   1.000000   1.000000
    9        1.112799      1.112810   1.000000   1.000000
   10        6.216094      6.216109   0.000000   0.000000
   11        6.947537      6.947551   0.000000   0.000000
   12        9.630358      9.629851   0.000000   0.000000
   13       12.086741     12.086658   0.000000   0.000000
   14       13.118750     13.099710   0.000000   0.000000
 
  0.4166667E+00  0.1818182E+00 -0.1010318E-15  0.2164502E-02
    1      -42.440829    -42.440668   1.000000   1.000000
    2      -21.055583    -21.055594   1.000000   1.000000
    3      -16.802377    -16.802384   1.000000   1.000000
    4       -6.143302     -6.143292   1.000000   1.000000
    5       -5.226725     -5.226706   1.000000   1.000000
    6       -4.992379     -4.992370   1.000000   1.000000
    7       -3.433809     -3.433791   1.000000   1.000000
    8       -0.404403     -0.404389   1.000000   1.000000
    9        0.837019      0.837031   1.000000   1.000000
   10        5.826784      5.826804   0.000000   0.000000
   11        6.805671      6.805683   0.000000   0.000000
   12       10.276632     10.276666   0.000000   0.000000
   13       12.465077     12.466814   0.000000   0.000000
   14       12.760475     12.770947   0.000000   0.000000
 
  0.5000000E+00  0.1818182E+00  0.3990844E-17  0.2164502E-02
    1      -42.439183    -42.439022   1.000000   1.000000
    2      -21.002634    -21.002641   1.000000   1.000000
    3      -16.768980    -16.768987   1.000000   1.000000
    4       -6.231994     -6.231986   1.000000   1.000000
    5       -5.260810     -5.260799   1.000000   1.000000
    6       -4.985561     -4.985543   1.000000   1.000000
    7       -3.480076     -3.480056   1.000000   1.000000
    8       -0.569775     -0.569762   1.000000   1.000000
    9        0.548592      0.548605   1.000000   1.000000
   10        5.566780      5.566801   0.000000   0.000000
   11        6.668914      6.668925   0.000000   0.000000
   12       10.491673     10.492010   0.000000   0.000000
   13       12.625255     12.628278   0.000000   0.000000
   14       13.804335     13.288982   0.000000   0.000000
 
 -0.4166667E+00  0.1818182E+00 -0.2274908E-16  0.2164502E-02
    1      -42.438970    -42.438809   1.000000   1.000000
    2      -20.992643    -20.992650   1.000000   1.000000
    3      -16.757951    -16.757958   1.000000   1.000000
    4       -6.222869     -6.222860   1.000000   1.000000
    5       -5.364539     -5.364528   1.000000   1.000000
    6       -4.949888     -4.949870   1.000000   1.000000
    7       -3.468200     -3.468179   1.000000   1.000000
    8       -0.534512     -0.534500   1.000000   1.000000
    9        0.321396      0.321410   1.000000   1.000000
   10        5.496024      5.496049   0.000000   0.000000
   11        6.605017      6.605027   0.000000   0.000000
   12       10.498822     10.498824   0.000000   0.000000
   13       12.666891     12.666970   0.000000   0.000000
   14       13.798914     13.810547   0.000000   0.000000
 
 -0.3333333E+00  0.1818182E+00 -0.4946694E-16  0.2164502E-02
    1      -42.440212    -42.440051   1.000000   1.000000
    2      -21.028312    -21.028320   1.000000   1.000000
    3      -16.772483    -16.772491   1.000000   1.000000
    4       -6.161654     -6.161643   1.000000   1.000000
    5       -5.323690     -5.323681   1.000000   1.000000
    6       -5.059353     -5.059335   1.000000   1.000000
    7       -3.371352     -3.371332   1.000000   1.000000
    8       -0.371551     -0.371542   1.000000   1.000000
    9        0.270044      0.270059   1.000000   1.000000
   10        5.611151      5.611173   0.000000   0.000000
   11        6.651855      6.651866   0.000000   0.000000
   12       10.457672     10.457637   0.000000   0.000000
   13       12.722793     12.722731   0.000000   0.000000
   14       13.523804     13.525206   0.000000   0.000000
 
 -0.2500000E+00  0.1818182E+00 -0.5830669E-16  0.2164502E-02
    1      -42.442597    -42.442436   1.000000   1.000000
    2      -21.098934    -21.098943   1.000000   1.000000
    3      -16.808596    -16.808603   1.000000   1.000000
    4       -6.131013     -6.130996   1.000000   1.000000
    5       -5.220050     -5.220034   1.000000   1.000000
    6       -5.089502     -5.089496   1.000000   1.000000
    7       -3.265370     -3.265350   1.000000   1.000000
    8       -0.208845     -0.208835   1.000000   1.000000
    9        0.514892      0.514906   1.000000   1.000000
   10        5.849466      5.849487   0.000000   0.000000
   11        6.804025      6.804036   0.000000   0.000000
   12       10.208858     10.208757   0.000000   0.000000
   13       12.787978     12.790991   0.000000   0.000000
   14       13.306199     13.304001   0.000000   0.000000
 
 -0.1666667E+00  0.1818182E+00 -0.1116584E-15  0.2164502E-02
    1      -42.445519    -42.445358   1.000000   1.000000
    2      -21.184316    -21.184325   1.000000   1.000000
    3      -16.856424    -16.856431   1.000000   1.000000
    4       -6.159449     -6.159425   1.000000   1.000000
    5       -5.294240     -5.294228   1.000000   1.000000
    6       -4.757458     -4.757455   1.000000   1.000000
    7       -3.214584     -3.214566   1.000000   1.000000
    8       -0.001178     -0.001169   1.000000   1.000000
    9        0.927750      0.927761   1.000000   1.000000
   10        6.134668      6.134688   0.000000   0.000000
   11        7.010595      7.010603   0.000000   0.000000
   12        9.611332      9.610738   0.000000   0.000000
   13       12.765666     12.764187   0.000000   0.000000
   14       12.955168     12.959705   0.000000   0.000000
 
 -0.8333333E-01  0.1818182E+00 -0.4197994E-16  0.2164502E-02
    1      -42.448136    -42.447975   1.000000   1.000000
    2      -21.261386    -21.261397   1.000000   1.000000
    3      -16.902826    -16.902833   1.000000   1.000000
    4       -6.229508     -6.229478   1.000000   1.000000
    5       -5.227229     -5.227221   1.000000   1.000000
    6       -4.472421     -4.472420   1.000000   1.000000
    7       -3.217922     -3.217905   1.000000   1.000000
    8        0.296548      0.296558   1.000000   1.000000
    9        1.292378      1.292387   1.000000   1.000000
   10        6.411948      6.411966   0.000000   0.000000
   11        7.203262      7.203268   0.000000   0.000000
   12        8.883644      8.883084   0.000000   0.000000
   13       12.253813     12.253058   0.000000   0.000000
   14       12.787170     12.787084   0.000000   0.000000
 
 -0.3386384E-16  0.2727273E+00 -0.2939160E-16  0.2164502E-02
    1      -42.447730    -42.447570   1.000000   1.000000
    2      -21.243222    -21.243232   1.000000   1.000000
    3      -16.894564    -16.894571   1.000000   1.000000
    4       -6.176471     -6.176444   1.000000   1.000000
    5       -5.431204     -5.431193   1.000000   1.000000
    6       -4.412069     -4.412069   1.000000   1.000000
    7       -3.249145     -3.249125   1.000000   1.000000
    8        0.067802      0.067813   1.000000   1.000000
    9        1.337962      1.337970   1.000000   1.000000
   10        6.160267      6.160289   0.000000   0.000000
   11        7.349153      7.349160   0.000000   0.000000
   12        9.144465      9.143622   0.000000   0.000000
   13       12.265450     12.261201   0.000000   0.000000
   14       13.083844     13.087207   0.000000   0.000000
 
  0.8333333E-01  0.2727273E+00 -0.3772627E-16  0.2164502E-02
    1      -42.448196    -42.448035   1.000000   1.000000
    2      -21.260609    -21.260619   1.000000   1.000000
    3      -16.910833    -16.910840   1.000000   1.000000
    4       -6.148622     -6.148593   1.000000   1.000000
    5       -5.269475     -5.269467   1.000000   1.000000
    6       -4.504261     -4.504261   1.000000   1.000000
    7       -3.305744     -3.305726   1.000000   1.000000
    8        0.366604      0.366615   1.000000   1.000000
    9        1.304736      1.304745   1.000000   1.000000
   10        6.385480      6.385499   0.000000   0.000000
   11        7.268972      7.268978   0.000000   0.000000
   12        8.938399      8.937788   0.000000   0.000000
   13       12.008969     12.008164   0.000000   0.000000
   14       12.884207     12.884940   0.000000   0.000000
 
  0.1666667E+00  0.2727273E+00 -0.7800725E-16  0.2164502E-02
    1      -42.447430    -42.447270   1.000000   1.000000
    2      -21.242714    -21.242724   1.000000   1.000000
    3      -16.908032    -16.908038   1.000000   1.000000
    4       -6.084599     -6.084571   1.000000   1.000000
    5       -5.128213     -5.128204   1.000000   1.000000
    6       -4.708787     -4.708785   1.000000   1.000000
    7       -3.375649     -3.375632   1.000000   1.000000
    8        0.426913      0.426926   1.000000   1.000000
    9        1.266304      1.266313   1.000000   1.000000
   10        6.580064      6.580082   0.000000   0.000000
   11        7.018690      7.018697   0.000000   0.000000
   12        8.996482      8.996002   0.000000   0.000000
   13       11.845226     11.845290   0.000000   0.000000
   14       12.875438     12.875766   0.000000   0.000000
 