       N       E                     dE             d eps       ncg     rms          rms(c)
DAV:   1     0.855585828997E+02    0.85559E+02   -0.85950E+03 25952   0.120E+03
DAV:   2    -0.233206216191E+02   -0.10888E+03   -0.10508E+03 33700   0.274E+02
DAV:   3    -0.285155413813E+02   -0.51949E+01   -0.51750E+01 36364   0.647E+01
DAV:   4    -0.287240533181E+02   -0.20851E+00   -0.20841E+00 39360   0.110E+01
DAV:   5    -0.287268094348E+02   -0.27561E-02   -0.27559E-02 35904   0.131E+00    0.130E+01
RMM:   6    -0.274428544550E+02    0.12840E+01   -0.40645E+00 28339   0.141E+01    0.599E+00
RMM:   7    -0.273733302980E+02    0.69524E-01   -0.66933E-01 33448   0.779E+00    0.343E+00
RMM:   8    -0.273469349972E+02    0.26395E-01   -0.29584E-01 36949   0.436E+00    0.170E+00
RMM:   9    -0.273602588980E+02   -0.13324E-01   -0.74094E-02 40069   0.239E+00    0.653E-01
RMM:  10    -0.273611502727E+02   -0.89137E-03   -0.25389E-02 42345   0.125E+00    0.164E-01
RMM:  11    -0.273626700715E+02   -0.15198E-02   -0.10757E-02 44483   0.721E-01    0.913E-02
RMM:  12    -0.273633891146E+02   -0.71904E-03   -0.50388E-03 47676   0.452E-01    0.591E-02
RMM:  13    -0.273636416451E+02   -0.25253E-03   -0.20697E-03 47407   0.282E-01    0.259E-02
RMM:  14    -0.273637548901E+02   -0.11325E-03   -0.91781E-04 46018   0.196E-01    0.158E-02
RMM:  15    -0.273638048092E+02   -0.49919E-04   -0.41793E-04 43276   0.128E-01    0.950E-03
RMM:  16    -0.273638253097E+02   -0.20500E-04   -0.17960E-04 39137   0.854E-02    0.274E-03
RMM:  17    -0.273638343895E+02   -0.90798E-05   -0.76778E-05 33820   0.632E-02
   1 F= -.27363834E+02 E0= -.27363834E+02  d E =0.000000E+00  mag=     0.0000
