       N       E                     dE             d eps       ncg     rms          rms(c)
DAV:   1     0.159213166739E+03    0.15921E+03   -0.12146E+04 10824   0.131E+03
DAV:   2     0.182116407639E+01   -0.15739E+03   -0.14931E+03 12018   0.321E+02
DAV:   3    -0.236624492701E+02   -0.25484E+02   -0.25315E+02 19298   0.745E+01
DAV:   4    -0.262927884436E+02   -0.26303E+01   -0.26140E+01 16032   0.329E+01
DAV:   5    -0.264887302313E+02   -0.19594E+00   -0.19592E+00 17402   0.712E+00    0.150E+01
RMM:   6    -0.269019422337E+02   -0.41321E+00   -0.18422E+00 13354   0.690E+00    0.764E+00
RMM:   7    -0.275827654944E+02   -0.68082E+00   -0.60036E-01 15146   0.465E+00    0.303E+00
RMM:   8    -0.276549008468E+02   -0.72135E-01   -0.55860E-01 17598   0.340E+00    0.131E+00
RMM:   9    -0.276650927158E+02   -0.10192E-01   -0.11778E-01 18291   0.204E+00    0.632E-01
RMM:  10    -0.276738218933E+02   -0.87292E-02   -0.55910E-02 19179   0.119E+00    0.282E-01
RMM:  11    -0.276766783492E+02   -0.28565E-02   -0.21753E-02 19478   0.708E-01    0.223E-01
RMM:  12    -0.276776892702E+02   -0.10109E-02   -0.85341E-03 19386   0.502E-01    0.610E-02
RMM:  13    -0.276783186878E+02   -0.62942E-03   -0.43801E-03 19379   0.319E-01    0.216E-02
RMM:  14    -0.276786021708E+02   -0.28348E-03   -0.24831E-03 18201   0.222E-01    0.237E-02
RMM:  15    -0.276787397860E+02   -0.13762E-03   -0.12550E-03 16904   0.156E-01    0.194E-02
RMM:  16    -0.276788207026E+02   -0.80917E-04   -0.74173E-04 16837   0.117E-01    0.295E-02
RMM:  17    -0.276788575127E+02   -0.36810E-04   -0.43530E-04 16257   0.951E-02    0.177E-02
RMM:  18    -0.276788857079E+02   -0.28195E-04   -0.28514E-04 14873   0.724E-02    0.151E-02
RMM:  19    -0.276789042007E+02   -0.18493E-04   -0.19563E-04 14846   0.611E-02    0.138E-02
RMM:  20    -0.276789166832E+02   -0.12483E-04   -0.12371E-04 13146   0.507E-02    0.148E-02
RMM:  21    -0.276789246873E+02   -0.80041E-05   -0.91467E-05 13101   0.456E-02
   1 F= -.27678925E+02 E0= -.27678925E+02  d E =0.000000E+00  mag=    -0.0001
