 running on   48 total cores
 distrk:  each k-point on   48 cores,    1 groups
 distr:  one band on    6 cores,    8 groups
 using from now: INCAR     
 vasp.6.1.2 22Jul20 (build Mar 31 2021 18:09:49) complex                        
  
 POSCAR found type information on POSCAR LiP 
 POSCAR found :  2 types and      64 ions
 scaLAPACK will be used
 LDA part: xc-table for Pade appr. of Perdew
 -----------------------------------------------------------------------------
|                                                                             |
|           W    W    AA    RRRRR   N    N  II  N    N   GGGG   !!!           |
|           W    W   A  A   R    R  NN   N  II  NN   N  G    G  !!!           |
|           W    W  A    A  R    R  N N  N  II  N N  N  G       !!!           |
|           W WW W  AAAAAA  RRRRR   N  N N  II  N  N N  G  GGG   !            |
|           WW  WW  A    A  R   R   N   NN  II  N   NN  G    G                |
|           W    W  A    A  R    R  N    N  II  N    N   GGGG   !!!           |
|                                                                             |
|     The determination of the symmetry of your systems shows a strong        |
|     dependence on the tolerance parameter SYMPREC. This is often the        |
|     result of "noise" in the structural parameters (lattice vectors         |
|     and/or ionic positions). Set NWRITE=3 for more details.                 |
|                                                                             |
 -----------------------------------------------------------------------------

 generate k-points for:    3    3    3
 POSCAR, INCAR and KPOINTS ok, starting setup
 FFT: planning ...
 WAVECAR not read
 entering main loop
       N       E                     dE             d eps       ncg     rms          rms(c)
DAV:   1     0.157566941398E+04    0.15757E+04   -0.12028E+05  8440   0.128E+03
DAV:   2    -0.121144115039E+03   -0.16968E+04   -0.15907E+04  9920   0.246E+02
DAV:   3    -0.305230120533E+03   -0.18409E+03   -0.18097E+03 10608   0.836E+01
DAV:   4    -0.319375874113E+03   -0.14146E+02   -0.14074E+02 13704   0.203E+01
DAV:   5    -0.322411815144E+03   -0.30359E+01   -0.30336E+01 14848   0.569E+00    0.423E+01
DAV:   6    -0.321892018491E+03    0.51980E+00   -0.11783E+01 10096   0.628E+00    0.243E+01
DAV:   7    -0.324019661012E+03   -0.21276E+01   -0.55752E+00  9936   0.429E+00    0.138E+01
DAV:   8    -0.325443157089E+03   -0.14235E+01   -0.24216E+00  9544   0.305E+00    0.288E+00
DAV:   9    -0.325515266664E+03   -0.72110E-01   -0.29909E-01 10672   0.117E+00    0.160E+00
DAV:  10    -0.325528795905E+03   -0.13529E-01   -0.70469E-02 10776   0.530E-01    0.636E-01
DAV:  11    -0.325534672505E+03   -0.58766E-02   -0.10939E-02  9968   0.265E-01    0.236E-01
DAV:  12    -0.325536934564E+03   -0.22621E-02   -0.30015E-03 10952   0.122E-01    0.124E-01
DAV:  13    -0.325537969698E+03   -0.10351E-02   -0.75347E-04 10792   0.594E-02    0.577E-02
DAV:  14    -0.325538467039E+03   -0.49734E-03   -0.38451E-04  9672   0.375E-02    0.343E-02
DAV:  15    -0.325538594356E+03   -0.12732E-03   -0.11877E-04  9496   0.207E-02    0.194E-02
DAV:  16    -0.325538630349E+03   -0.35993E-04   -0.31758E-05  7992   0.121E-02    0.932E-03
DAV:  17    -0.325538640422E+03   -0.10073E-04   -0.11432E-05  7240   0.766E-03    0.420E-03
DAV:  18    -0.325538641737E+03   -0.13143E-05   -0.24337E-06  5272   0.364E-03
   1 F= -.32553864E+03 E0= -.32553864E+03  d E =0.000000E+00  mag=     0.0002
