Automatically generated mesh
     138
Reciprocal lattice
    0.00000000000000    0.00000000000000    0.00000000000000             1
    0.10000000000000    0.00000000000000    0.00000000000000             2
    0.20000000000000    0.00000000000000    0.00000000000000             2
    0.30000000000000    0.00000000000000    0.00000000000000             2
    0.40000000000000    0.00000000000000    0.00000000000000             2
    0.50000000000000    0.00000000000000    0.00000000000000             1
    0.00000000000000    0.11111111111111    0.00000000000000             2
    0.10000000000000    0.11111111111111    0.00000000000000             2
    0.20000000000000    0.11111111111111    0.00000000000000             2
    0.30000000000000    0.11111111111111    0.00000000000000             2
    0.40000000000000    0.11111111111111    0.00000000000000             2
    0.50000000000000    0.11111111111111    0.00000000000000             2
   -0.40000000000000    0.11111111111111    0.00000000000000             2
   -0.30000000000000    0.11111111111111    0.00000000000000             2
   -0.20000000000000    0.11111111111111    0.00000000000000             2
   -0.10000000000000    0.11111111111111    0.00000000000000             2
    0.00000000000000    0.22222222222222    0.00000000000000             2
    0.10000000000000    0.22222222222222    0.00000000000000             2
    0.20000000000000    0.22222222222222    0.00000000000000             2
    0.30000000000000    0.22222222222222    0.00000000000000             2
    0.40000000000000    0.22222222222222    0.00000000000000             2
    0.50000000000000    0.22222222222222    0.00000000000000             2
   -0.40000000000000    0.22222222222222    0.00000000000000             2
   -0.30000000000000    0.22222222222222    0.00000000000000             2
   -0.20000000000000    0.22222222222222    0.00000000000000             2
   -0.10000000000000    0.22222222222222    0.00000000000000             2
   -0.00000000000000    0.33333333333334    0.00000000000000             2
    0.10000000000000    0.33333333333334    0.00000000000000             2
    0.20000000000000    0.33333333333334    0.00000000000000             2
    0.30000000000000    0.33333333333334    0.00000000000000             2
    0.40000000000000    0.33333333333334    0.00000000000000             2
    0.50000000000000    0.33333333333334    0.00000000000000             2
   -0.40000000000000    0.33333333333334    0.00000000000000             2
   -0.30000000000000    0.33333333333334    0.00000000000000             2
   -0.20000000000000    0.33333333333334    0.00000000000000             2
   -0.10000000000000    0.33333333333334    0.00000000000000             2
    0.00000000000000    0.44444444444444    0.00000000000000             2
    0.10000000000000    0.44444444444444    0.00000000000000             2
    0.20000000000000    0.44444444444444    0.00000000000000             2
    0.30000000000000    0.44444444444444    0.00000000000000             2
    0.40000000000000    0.44444444444444    0.00000000000000             2
    0.50000000000000    0.44444444444444    0.00000000000000             2
   -0.40000000000000    0.44444444444444    0.00000000000000             2
   -0.30000000000000    0.44444444444444    0.00000000000000             2
   -0.20000000000000    0.44444444444444    0.00000000000000             2
   -0.10000000000000    0.44444444444444    0.00000000000000             2
    0.00000000000000    0.00000000000000    0.25000000000000             2
    0.10000000000000    0.00000000000000    0.25000000000000             4
    0.20000000000000    0.00000000000000    0.25000000000000             4
    0.30000000000000    0.00000000000000    0.25000000000000             4
    0.40000000000000    0.00000000000000    0.25000000000000             4
    0.50000000000000    0.00000000000000    0.25000000000000             2
    0.00000000000000    0.11111111111111    0.25000000000000             4
    0.10000000000000    0.11111111111111    0.25000000000000             4
    0.20000000000000    0.11111111111111    0.25000000000000             4
    0.30000000000000    0.11111111111111    0.25000000000000             4
    0.40000000000000    0.11111111111111    0.25000000000000             4
    0.50000000000000    0.11111111111111    0.25000000000000             4
   -0.40000000000000    0.11111111111111    0.25000000000000             4
   -0.30000000000000    0.11111111111111    0.25000000000000             4
   -0.20000000000000    0.11111111111111    0.25000000000000             4
   -0.10000000000000    0.11111111111111    0.25000000000000             4
    0.00000000000000    0.22222222222222    0.25000000000000             4
    0.10000000000000    0.22222222222222    0.25000000000000             4
    0.20000000000000    0.22222222222222    0.25000000000000             4
    0.30000000000000    0.22222222222222    0.25000000000000             4
    0.40000000000000    0.22222222222222    0.25000000000000             4
    0.50000000000000    0.22222222222222    0.25000000000000             4
   -0.40000000000000    0.22222222222222    0.25000000000000             4
   -0.30000000000000    0.22222222222222    0.25000000000000             4
   -0.20000000000000    0.22222222222222    0.25000000000000             4
   -0.10000000000000    0.22222222222222    0.25000000000000             4
   -0.00000000000000    0.33333333333334    0.25000000000000             4
    0.10000000000000    0.33333333333334    0.25000000000000             4
    0.20000000000000    0.33333333333334    0.25000000000000             4
    0.30000000000000    0.33333333333334    0.25000000000000             4
    0.40000000000000    0.33333333333334    0.25000000000000             4
    0.50000000000000    0.33333333333334    0.25000000000000             4
   -0.40000000000000    0.33333333333334    0.25000000000000             4
   -0.30000000000000    0.33333333333334    0.25000000000000             4
   -0.20000000000000    0.33333333333334    0.25000000000000             4
   -0.10000000000000    0.33333333333334    0.25000000000000             4
    0.00000000000000    0.44444444444444    0.25000000000000             4
    0.10000000000000    0.44444444444444    0.25000000000000             4
    0.20000000000000    0.44444444444444    0.25000000000000             4
    0.30000000000000    0.44444444444444    0.25000000000000             4
    0.40000000000000    0.44444444444444    0.25000000000000             4
    0.50000000000000    0.44444444444444    0.25000000000000             4
   -0.40000000000000    0.44444444444444    0.25000000000000             4
   -0.30000000000000    0.44444444444444    0.25000000000000             4
   -0.20000000000000    0.44444444444444    0.25000000000000             4
   -0.10000000000000    0.44444444444444    0.25000000000000             4
    0.00000000000000    0.00000000000000    0.50000000000000             1
    0.10000000000000    0.00000000000000    0.50000000000000             2
    0.20000000000000    0.00000000000000    0.50000000000000             2
    0.30000000000000    0.00000000000000    0.50000000000000             2
    0.40000000000000    0.00000000000000    0.50000000000000             2
    0.50000000000000    0.00000000000000    0.50000000000000             1
    0.00000000000000    0.11111111111111    0.50000000000000             2
    0.10000000000000    0.11111111111111    0.50000000000000             2
    0.20000000000000    0.11111111111111    0.50000000000000             2
    0.30000000000000    0.11111111111111    0.50000000000000             2
    0.40000000000000    0.11111111111111    0.50000000000000             2
    0.50000000000000    0.11111111111111    0.50000000000000             2
   -0.40000000000000    0.11111111111111    0.50000000000000             2
   -0.30000000000000    0.11111111111111    0.50000000000000             2
   -0.20000000000000    0.11111111111111    0.50000000000000             2
   -0.10000000000000    0.11111111111111    0.50000000000000             2
    0.00000000000000    0.22222222222222    0.50000000000000             2
    0.10000000000000    0.22222222222222    0.50000000000000             2
    0.20000000000000    0.22222222222222    0.50000000000000             2
    0.30000000000000    0.22222222222222    0.50000000000000             2
    0.40000000000000    0.22222222222222    0.50000000000000             2
    0.50000000000000    0.22222222222222    0.50000000000000             2
   -0.40000000000000    0.22222222222222    0.50000000000000             2
   -0.30000000000000    0.22222222222222    0.50000000000000             2
   -0.20000000000000    0.22222222222222    0.50000000000000             2
   -0.10000000000000    0.22222222222222    0.50000000000000             2
   -0.00000000000000    0.33333333333334    0.50000000000000             2
    0.10000000000000    0.33333333333334    0.50000000000000             2
    0.20000000000000    0.33333333333334    0.50000000000000             2
    0.30000000000000    0.33333333333334    0.50000000000000             2
    0.40000000000000    0.33333333333334    0.50000000000000             2
    0.50000000000000    0.33333333333334    0.50000000000000             2
   -0.40000000000000    0.33333333333334    0.50000000000000             2
   -0.30000000000000    0.33333333333334    0.50000000000000             2
   -0.20000000000000    0.33333333333334    0.50000000000000             2
   -0.10000000000000    0.33333333333334    0.50000000000000             2
    0.00000000000000    0.44444444444444    0.50000000000000             2
    0.10000000000000    0.44444444444444    0.50000000000000             2
    0.20000000000000    0.44444444444444    0.50000000000000             2
    0.30000000000000    0.44444444444444    0.50000000000000             2
    0.40000000000000    0.44444444444444    0.50000000000000             2
    0.50000000000000    0.44444444444444    0.50000000000000             2
   -0.40000000000000    0.44444444444444    0.50000000000000             2
   -0.30000000000000    0.44444444444444    0.50000000000000             2
   -0.20000000000000    0.44444444444444    0.50000000000000             2
   -0.10000000000000    0.44444444444444    0.50000000000000             2
Tetrahedra
      1080    0.00046296296296
         2         1         2         7        48
         2         2         7         8        48
         2         7         8        48        54
         2         1         7        47        48
         2         7        47        48        53
         2         7        48        53        54
         2         2         3         8        49
         2         3         8         9        49
         2         8         9        49        55
         2         2         8        48        49
         2         8        48        49        54
         2         8        49        54        55
         2         3         4         9        50
         2         4         9        10        50
         2         9        10        50        56
         2         3         9        49        50
         2         9        49        50        55
         2         9        50        55        56
         2         4         5        10        51
         2         5        10        11        51
         2        10        11        51        57
         2         4        10        50        51
         2        10        50        51        56
         2        10        51        56        57
         2         5         6        11        52
         2         6        11        12        52
         2        11        12        52        58
         2         5        11        51        52
         2        11        51        52        57
         2        11        52        57        58
         2         5         6        12        51
         2         5        12        13        51
         2        12        13        51        59
         2         6        12        51        52
         2        12        51        52        58
         2        12        51        58        59
         2         4         5        13        50
         2         4        13        14        50
         2        13        14        50        60
         2         5        13        50        51
         2        13        50        51        59
         2        13        50        59        60
         2         3         4        14        49
         2         3        14        15        49
         2        14        15        49        61
         2         4        14        49        50
         2        14        49        50        60
         2        14        49        60        61
         2         2         3        15        48
         2         2        15        16        48
         2        15        16        48        62
         2         3        15        48        49
         2        15        48        49        61
         2        15        48        61        62
         2         1         2        16        47
         2         1         7        16        47
         2         7        16        47        53
         2         2        16        47        48
         2        16        47        48        62
         2        16        47        53        62
         2         7         8        17        54
         2         8        17        18        54
         2        17        18        54        64
         2         7        17        53        54
         2        17        53        54        63
         2        17        54        63        64
         2         8         9        18        55
         2         9        18        19        55
         2        18        19        55        65
         2         8        18        54        55
         2        18        54        55        64
         2        18        55        64        65
         2         9        10        19        56
         2        10        19        20        56
         2        19        20        56        66
         2         9        19        55        56
         2        19        55        56        65
         2        19        56        65        66
         2        10        11        20        57
         2        11        20        21        57
         2        20        21        57        67
         2        10        20        56        57
         2        20        56        57        66
         2        20        57        66        67
         2        11        12        21        58
         2        12        21        22        58
         2        21        22        58        68
         2        11        21        57        58
         2        21        57        58        67
         2        21        58        67        68
         2        12        13        22        59
         2        13        22        23        59
         2        22        23        59        69
         2        12        22        58        59
         2        22        58        59        68
         2        22        59        68        69
         2        13        14        23        60
         2        14        23        24        60
         2        23        24        60        70
         2        13        23        59        60
         2        23        59        60        69
         2        23        60        69        70
         2        14        15        24        61
         2        15        24        25        61
         2        24        25        61        71
         2        14        24        60        61
         2        24        60        61        70
         2        24        61        70        71
         2        15        16        25        62
         2        16        25        26        62
         2        25        26        62        72
         2        15        25        61        62
         2        25        61        62        71
         2        25        62        71        72
         2         7        16        26        53
         2         7        17        26        53
         2        17        26        53        63
         2        16        26        53        62
         2        26        53        62        72
         2        26        53        63        72
         2        17        18        27        64
         2        18        27        28        64
         2        27        28        64        74
         2        17        27        63        64
         2        27        63        64        73
         2        27        64        73        74
         2        18        19        28        65
         2        19        28        29        65
         2        28        29        65        75
         2        18        28        64        65
         2        28        64        65        74
         2        28        65        74        75
         2        19        20        29        66
         2        20        29        30        66
         2        29        30        66        76
         2        19        29        65        66
         2        29        65        66        75
         2        29        66        75        76
         2        20        21        30        67
         2        21        30        31        67
         2        30        31        67        77
         2        20        30        66        67
         2        30        66        67        76
         2        30        67        76        77
         2        21        22        31        68
         2        22        31        32        68
         2        31        32        68        78
         2        21        31        67        68
         2        31        67        68        77
         2        31        68        77        78
         2        22        23        32        69
         2        23        32        33        69
         2        32        33        69        79
         2        22        32        68        69
         2        32        68        69        78
         2        32        69        78        79
         2        23        24        33        70
         2        24        33        34        70
         2        33        34        70        80
         2        23        33        69        70
         2        33        69        70        79
         2        33        70        79        80
         2        24        25        34        71
         2        25        34        35        71
         2        34        35        71        81
         2        24        34        70        71
         2        34        70        71        80
         2        34        71        80        81
         2        25        26        35        72
         2        26        35        36        72
         2        35        36        72        82
         2        25        35        71        72
         2        35        71        72        81
         2        35        72        81        82
         2        17        26        36        63
         2        17        27        36        63
         2        27        36        63        73
         2        26        36        63        72
         2        36        63        72        82
         2        36        63        73        82
         2        27        28        37        74
         2        28        37        38        74
         2        37        38        74        84
         2        27        37        73        74
         2        37        73        74        83
         2        37        74        83        84
         2        28        29        38        75
         2        29        38        39        75
         2        38        39        75        85
         2        28        38        74        75
         2        38        74        75        84
         2        38        75        84        85
         2        29        30        39        76
         2        30        39        40        76
         2        39        40        76        86
         2        29        39        75        76
         2        39        75        76        85
         2        39        76        85        86
         2        30        31        40        77
         2        31        40        41        77
         2        40        41        77        87
         2        30        40        76        77
         2        40        76        77        86
         2        40        77        86        87
         2        31        32        41        78
         2        32        41        42        78
         2        41        42        78        88
         2        31        41        77        78
         2        41        77        78        87
         2        41        78        87        88
         2        32        33        42        79
         2        33        42        43        79
         2        42        43        79        89
         2        32        42        78        79
         2        42        78        79        88
         2        42        79        88        89
         2        33        34        43        80
         2        34        43        44        80
         2        43        44        80        90
         2        33        43        79        80
         2        43        79        80        89
         2        43        80        89        90
         2        34        35        44        81
         2        35        44        45        81
         2        44        45        81        91
         2        34        44        80        81
         2        44        80        81        90
         2        44        81        90        91
         2        35        36        45        82
         2        36        45        46        82
         2        45        46        82        92
         2        35        45        81        82
         2        45        81        82        91
         2        45        82        91        92
         2        27        36        46        73
         2        27        37        46        73
         2        37        46        73        83
         2        36        46        73        82
         2        46        73        82        92
         2        46        73        83        92
         2        37        37        38        84
         2        37        38        46        84
         2        37        46        84        92
         2        37        37        83        84
         2        37        83        83        84
         2        37        83        84        92
         2        38        39        46        85
         2        39        45        46        85
         2        45        46        85        91
         2        38        46        84        85
         2        46        84        85        92
         2        46        85        91        92
         2        39        40        45        86
         2        40        44        45        86
         2        44        45        86        90
         2        39        45        85        86
         2        45        85        86        91
         2        45        86        90        91
         2        40        41        44        87
         2        41        43        44        87
         2        43        44        87        89
         2        40        44        86        87
         2        44        86        87        90
         2        44        87        89        90
         2        41        42        43        88
         2        42        42        43        88
         2        42        43        88        88
         2        41        43        87        88
         2        43        87        88        89
         2        43        88        88        89
         2        42        42        43        89
         2        41        42        43        89
         2        41        42        87        89
         2        42        42        88        89
         2        42        88        88        89
         2        42        87        88        89
         2        41        43        44        90
         2        40        41        44        90
         2        40        41        86        90
         2        41        43        89        90
         2        41        87        89        90
         2        41        86        87        90
         2        40        44        45        91
         2        39        40        45        91
         2        39        40        85        91
         2        40        44        90        91
         2        40        86        90        91
         2        40        85        86        91
         2        39        45        46        92
         2        38        39        46        92
         2        38        39        84        92
         2        39        45        91        92
         2        39        85        91        92
         2        39        84        85        92
         2        37        38        46        83
         2        37        37        38        83
         2        37        38        83        83
         2        38        46        83        92
         2        38        83        84        92
         2        38        83        83        84
         2        27        37        46        92
         2        27        36        46        92
         2        27        36        82        92
         2        27        37        83        92
         2        27        73        83        92
         2        27        73        82        92
         2        36        45        46        91
         2        35        36        45        91
         2        35        36        81        91
         2        36        46        91        92
         2        36        82        91        92
         2        36        81        82        91
         2        35        44        45        90
         2        34        35        44        90
         2        34        35        80        90
         2        35        45        90        91
         2        35        81        90        91
         2        35        80        81        90
         2        34        43        44        89
         2        33        34        43        89
         2        33        34        79        89
         2        34        44        89        90
         2        34        80        89        90
         2        34        79        80        89
         2        33        42        43        88
         2        32        33        42        88
         2        32        33        78        88
         2        33        43        88        89
         2        33        79        88        89
         2        33        78        79        88
         2        32        41        42        87
         2        31        32        41        87
         2        31        32        77        87
         2        32        42        87        88
         2        32        78        87        88
         2        32        77        78        87
         2        31        40        41        86
         2        30        31        40        86
         2        30        31        76        86
         2        31        41        86        87
         2        31        77        86        87
         2        31        76        77        86
         2        30        39        40        85
         2        29        30        39        85
         2        29        30        75        85
         2        30        40        85        86
         2        30        76        85        86
         2        30        75        76        85
         2        29        38        39        84
         2        28        29        38        84
         2        28        29        74        84
         2        29        39        84        85
         2        29        75        84        85
         2        29        74        75        84
         2        28        37        38        83
         2        27        28        37        83
         2        27        28        73        83
         2        28        38        83        84
         2        28        74        83        84
         2        28        73        74        83
         2        17        27        36        82
         2        17        26        36        82
         2        17        26        72        82
         2        17        27        73        82
         2        17        63        73        82
         2        17        63        72        82
         2        26        35        36        81
         2        25        26        35        81
         2        25        26        71        81
         2        26        36        81        82
         2        26        72        81        82
         2        26        71        72        81
         2        25        34        35        80
         2        24        25        34        80
         2        24        25        70        80
         2        25        35        80        81
         2        25        71        80        81
         2        25        70        71        80
         2        24        33        34        79
         2        23        24        33        79
         2        23        24        69        79
         2        24        34        79        80
         2        24        70        79        80