 running on   12 total cores
 distrk:  each k-point on   12 cores,    1 groups
 distr:  one band on    6 cores,    2 groups
 using from now: INCAR     
 vasp.6.1.2 22Jul20 (build Mar 20 2021 11:25:07) complex                        
  
 POSCAR found type information on POSCAR LiP 
 POSCAR found :  2 types and       8 ions
 scaLAPACK will be used
 -----------------------------------------------------------------------------
|                                                                             |
|               ----> ADVICE to this user running VASP <----                  |
|                                                                             |
|     You have a (more or less) 'small supercell' and for smaller cells       |
|     it is recommended to use the reciprocal-space projection scheme!        |
|     The real-space optimization is not efficient for small cells and it     |
|     is also less accurate ...                                               |
|     Therefore, set LREAL=.FALSE. in the INCAR file.                         |
|                                                                             |
 -----------------------------------------------------------------------------

 LDA part: xc-table for Pade appr. of Perdew
 generate k-points for:   10    9    4
 POSCAR, INCAR and KPOINTS ok, starting setup
 FFT: planning ...
 WAVECAR not read
 entering main loop
       N       E                     dE             d eps       ncg     rms          rms(c)
DAV:   1     0.160578859248E+03    0.16058E+03   -0.12150E+04 12152   0.131E+03
DAV:   2     0.196478905991E+01   -0.15861E+03   -0.15075E+03 13496   0.324E+02
DAV:   3    -0.236853180190E+02   -0.25650E+02   -0.25462E+02 22096   0.744E+01
DAV:   4    -0.261546721935E+02   -0.24694E+01   -0.24555E+01 17856   0.324E+01
DAV:   5    -0.263386093715E+02   -0.18394E+00   -0.18391E+00 19680   0.697E+00    0.150E+01
RMM:   6    -0.267233951942E+02   -0.38479E+00   -0.18676E+00 15025   0.692E+00    0.767E+00
RMM:   7    -0.273965031634E+02   -0.67311E+00   -0.61367E-01 17102   0.465E+00    0.309E+00
RMM:   8    -0.274667753131E+02   -0.70272E-01   -0.57156E-01 19840   0.344E+00    0.133E+00
RMM:   9    -0.274770873325E+02   -0.10312E-01   -0.12080E-01 20546   0.206E+00    0.644E-01
RMM:  10    -0.274860264496E+02   -0.89391E-02   -0.56982E-02 21555   0.121E+00    0.283E-01
RMM:  11    -0.274889416580E+02   -0.29152E-02   -0.22412E-02 21924   0.723E-01    0.225E-01
RMM:  12    -0.274899884494E+02   -0.10468E-02   -0.88617E-03 21856   0.510E-01    0.651E-02
RMM:  13    -0.274906276373E+02   -0.63919E-03   -0.46013E-03 21793   0.324E-01    0.210E-02
RMM:  14    -0.274909246540E+02   -0.29702E-03   -0.26123E-03 20474   0.226E-01    0.234E-02
RMM:  15    -0.274910703019E+02   -0.14565E-03   -0.13360E-03 18975   0.160E-01    0.202E-02
RMM:  16    -0.274911578119E+02   -0.87510E-04   -0.80714E-04 18957   0.121E-01    0.325E-02
RMM:  17    -0.274911966678E+02   -0.38856E-04   -0.47764E-04 18199   0.995E-02    0.163E-02
RMM:  18    -0.274912285332E+02   -0.31865E-04   -0.32342E-04 17069   0.754E-02    0.134E-02
RMM:  19    -0.274912492822E+02   -0.20749E-04   -0.21660E-04 16570   0.626E-02    0.120E-02
RMM:  20    -0.274912631732E+02   -0.13891E-04   -0.14027E-04 14832   0.520E-02    0.123E-02
RMM:  21    -0.274912729616E+02   -0.97884E-05   -0.10295E-04 14835   0.468E-02    0.130E-02
RMM:  22    -0.274912786427E+02   -0.56811E-05   -0.74785E-05 14337   0.424E-02
   1 F= -.27491279E+02 E0= -.27491279E+02  d E =0.000000E+00  mag=    -0.0001
