 running on   12 total cores
 distrk:  each k-point on   12 cores,    1 groups
 distr:  one band on    6 cores,    2 groups
 using from now: INCAR     
 vasp.6.1.2 22Jul20 (build Mar 20 2021 11:25:07) complex                        
  
 POSCAR found type information on POSCAR LiP N O 
 POSCAR found :  4 types and      12 ions
 scaLAPACK will be used
 LDA part: xc-table for Pade appr. of Perdew
 generate k-points for:    7    7    7
 POSCAR, INCAR and KPOINTS ok, starting setup
 FFT: planning ...
 WAVECAR not read
 entering main loop
       N       E                     dE             d eps       ncg     rms          rms(c)
DAV:   1     0.419072977755E+03    0.41907E+03   -0.27584E+04 16008   0.147E+03
DAV:   2    -0.439210614980E+02   -0.46299E+03   -0.44350E+03 18520   0.375E+02
DAV:   3    -0.812797309864E+02   -0.37359E+02   -0.37180E+02 23544   0.995E+01
DAV:   4    -0.844922157792E+02   -0.32125E+01   -0.31994E+01 25616   0.235E+01
DAV:   5    -0.847143558232E+02   -0.22214E+00   -0.22213E+00 22464   0.467E+00    0.353E+01
RMM:   6    -0.763995776484E+02    0.83148E+01   -0.30100E+01 17082   0.232E+01    0.151E+01
RMM:   7    -0.768476322017E+02   -0.44805E+00   -0.49612E+00 23756   0.102E+01    0.756E+00
RMM:   8    -0.770338726745E+02   -0.18624E+00   -0.83352E-01 25934   0.481E+00    0.381E+00
RMM:   9    -0.770696631470E+02   -0.35790E-01   -0.29467E-01 26071   0.312E+00    0.108E+00
RMM:  10    -0.770977043919E+02   -0.28041E-01   -0.20311E-01 29758   0.191E+00    0.360E-01
RMM:  11    -0.771083393430E+02   -0.10635E-01   -0.87903E-02 30809   0.112E+00    0.284E-01
RMM:  12    -0.771127612053E+02   -0.44219E-02   -0.34273E-02 31161   0.699E-01    0.195E-01
RMM:  13    -0.771144783812E+02   -0.17172E-02   -0.13141E-02 30880   0.451E-01    0.713E-02
RMM:  14    -0.771152341386E+02   -0.75576E-03   -0.58140E-03 30727   0.309E-01    0.341E-02
RMM:  15    -0.771155157307E+02   -0.28159E-03   -0.24936E-03 30194   0.193E-01    0.292E-02
RMM:  16    -0.771156268615E+02   -0.11113E-03   -0.10742E-03 29724   0.123E-01    0.151E-02
RMM:  17    -0.771156672563E+02   -0.40395E-04   -0.40621E-04 29298   0.806E-02    0.505E-03
RMM:  18    -0.771156867865E+02   -0.19530E-04   -0.16719E-04 26422   0.541E-02    0.449E-03
RMM:  19    -0.771156913814E+02   -0.45948E-05   -0.46860E-05 21606   0.399E-02
   1 F= -.77115691E+02 E0= -.77115691E+02  d E =0.000000E+00  mag=     0.0000
