    1    1    1    2
  0.2213277E+02  0.3264483E-09  0.2967711E-09  0.2967711E-09  0.5000000E-15
  1.000000000000000E-004
  CAR 
 unknown system                          
      3    553      6
 
  0.0000000E+00  0.0000000E+00  0.0000000E+00  0.4930966E-03
    1      -46.318034    -46.316548   1.000000   1.000000
    2       -3.051926     -3.052342   1.000000   1.000000
    3       12.814843     12.814836   0.000000   0.000000
    4       14.239568     14.239486   0.000000   0.000000
    5       14.663274     14.663226   0.000000   0.000000
    6       16.669682     16.669510   0.000000   0.000000
 
  0.8333333E-01 -0.2152417E-17 -0.1172537E-16  0.9861933E-03
    1      -46.317386    -46.315900   1.000000   1.000000
    2       -2.939989     -2.940408   1.000000   1.000000
    3       11.621869     11.621938   0.000000   0.000000
    4       13.779913     13.779847   0.000000   0.000000
    5       14.450683     14.450567   0.000000   0.000000
    6       17.007158     17.006741   0.000000   0.000000
 
  0.1666667E+00 -0.6621308E-17 -0.2113427E-16  0.9861933E-03
    1      -46.315608    -46.314122   1.000000   1.000000
    2       -2.604310     -2.604736   1.000000   1.000000
    3        9.391359      9.391340   0.000000   0.000000
    4       13.035893     13.035844   0.000000   0.000000
    5       13.947997     13.947752   0.000000   0.000000
    6       16.769523     16.769354   0.000000   0.000000
 
  0.2500000E+00  0.1301598E-16 -0.4077155E-16  0.9861933E-03
    1      -46.313218    -46.311731   1.000000   1.000000
    2       -2.047900     -2.048341   1.000000   1.000000
    3        7.144759      7.144500   0.000000   0.000000
    4       12.297486     12.297441   0.000000   0.000000
    5       13.392773     13.392425   0.000000   0.000000
    6       15.788977     15.788628   0.000000   0.000000
 
  0.3333333E+00  0.4940271E-17 -0.6045142E-16  0.9861933E-03
    1      -46.310800    -46.309314   1.000000   1.000000
    2       -1.285997     -1.286463   1.000000   1.000000
    3        5.120328      5.120030   0.000000   0.000000
    4       11.709881     11.709835   0.000000   0.000000
    5       12.938131     12.937717   0.000000   0.000000
    6       15.032490     15.032121   0.000000   0.000000
 
  0.4166667E+00 -0.5494493E-17 -0.5001666E-16  0.9861933E-03
    1      -46.309009    -46.307522   1.000000   1.000000
    2       -0.395850     -0.396364   1.000000   1.000000
    3        3.457987      3.457720   0.000000   0.000000
    4       11.339808     11.339761   0.000000   0.000000
    5       12.650589     12.650138   0.000000   0.000000
    6       14.561900     14.561519   0.000000   0.000000
 
  0.5000000E+00  0.2603195E-16 -0.8154311E-16  0.4930966E-03
    1      -46.308319    -46.306832   1.000000   1.000000
    2        0.164057      0.163473   1.000000   1.000000
    3        2.638904      2.638701   0.000000   0.000000
    4       11.214046     11.213998   0.000000   0.000000
    5       12.553097     12.552635   0.000000   0.000000
    6       14.402480     14.402097   0.000000   0.000000
 
  0.1582621E-17  0.7692308E-01  0.8232024E-15  0.1972387E-02
    1      -46.317133    -46.315647   1.000000   1.000000
    2       -2.936509     -2.936927   1.000000   1.000000
    3       12.356648     12.356615   0.000000   0.000000
    4       13.836189     13.836199   0.000000   0.000000
    5       14.327287     14.327240   0.000000   0.000000
    6       16.611485     16.611060   0.000000   0.000000
 
  0.8333333E-01  0.7692308E-01  0.8134657E-15  0.1972387E-02
    1      -46.315807    -46.314321   1.000000   1.000000
    2       -2.710688     -2.711110   1.000000   1.000000
    3       10.538162     10.538218   0.000000   0.000000
    4       13.228751     13.228751   0.000000   0.000000
    5       14.058979     14.058857   0.000000   0.000000
    6       16.356011     16.355456   0.000000   0.000000
 
  0.1666667E+00  0.7692308E-01  0.8020681E-15  0.1972387E-02
    1      -46.313633    -46.312147   1.000000   1.000000
    2       -2.261852     -2.262284   1.000000   1.000000
    3        8.293094      8.292868   0.000000   0.000000
    4       12.324724     12.324665   0.000000   0.000000
    5       13.450935     13.450685   0.000000   0.000000
    6       16.551317     16.551930   0.000000   0.000000
 
  0.2500000E+00  0.7692308E-01  0.8042205E-15  0.1972387E-02
    1      -46.311212    -46.309725   1.000000   1.000000
    2       -1.596563     -1.597014   1.000000   1.000000
    3        6.152378      6.152074   0.000000   0.000000
    4       11.537687     11.537599   0.000000   0.000000
    5       12.782650     12.782323   0.000000   0.000000
    6       16.152554     16.152398   0.000000   0.000000
 
  0.3333333E+00  0.7692308E-01  0.7647396E-15  0.1972387E-02
    1      -46.309167    -46.307680   1.000000   1.000000
    2       -0.746954     -0.747438   1.013085   1.013000
    3        4.283879      4.283581   0.000000   0.000000
    4       10.964882     10.964791   0.000000   0.000000
    5       12.240963     12.240607   0.000000   0.000000
    6       15.780492     15.780312   0.000000   0.000000
 
  0.4166667E+00  0.7692308E-01  0.7751744E-15  0.1972387E-02
    1      -46.308004    -46.306516   1.000000   1.000000
    2        0.101952      0.101396   1.017374   1.017371
    3        2.917017      2.916775   0.000000   0.000000
    4       10.631500     10.631398   0.000000   0.000000
    5       11.906136     11.905778   0.000000   0.000000
    6       15.657250     15.656971   0.000000   0.000000
 
  0.5000000E+00  0.7692308E-01  0.6960061E-15  0.1972387E-02
    1      -46.308138    -46.306650   1.000000   1.000000
    2        0.097735      0.097177   1.004039   1.004030
    3        2.918910      2.918668   0.000000   0.000000
    4       10.542248     10.542129   0.000000   0.000000
    5       11.807773     11.807430   0.000000   0.000000
    6       15.783856     15.783657   0.000000   0.000000
 
 -0.4166667E+00  0.7692308E-01  0.8712304E-15  0.1972387E-02
    1      -46.309482    -46.307995   1.000000   1.000000
    2       -0.754774     -0.755260   1.000000   1.000000
    3        4.286942      4.286640   0.000000   0.000000
    4       10.692914     10.692785   0.000000   0.000000
    5       11.949915     11.949598   0.000000   0.000000
    6       16.141360     16.141208   0.000000   0.000000
 
 -0.3333333E+00  0.7692308E-01  0.8915657E-15  0.1972387E-02
    1      -46.311646    -46.310160   1.000000   1.000000
    2       -1.604994     -1.605447   1.000000   1.000000
    3        6.159169      6.158855   0.000000   0.000000
    4       11.070363     11.070228   0.000000   0.000000
    5       12.317294     12.317006   0.000000   0.000000
    6       16.672705     16.672525   0.000000   0.000000
 
 -0.2500000E+00  0.7692308E-01  0.8659626E-15  0.1972387E-02
    1      -46.314062    -46.312576   1.000000   1.000000
    2       -2.269197     -2.269632   1.000000   1.000000
    3        8.317986      8.317711   0.000000   0.000000
    4       11.646418     11.646286   0.000000   0.000000
    5       12.871827     12.871575   0.000000   0.000000
    6       17.211752     17.211943   0.000000   0.000000
 
 -0.1666667E+00  0.7692308E-01  0.8284703E-15  0.1972387E-02
    1      -46.316118    -46.314633   1.000000   1.000000
    2       -2.715663     -2.716088   1.000000   1.000000
    3       10.624697     10.624616   0.000000   0.000000
    4       12.365483     12.365379   0.000000   0.000000
    5       13.538160     13.537958   0.000000   0.000000
    6       17.306178     17.302228   0.000000   0.000000
 
 -0.8333333E-01  0.7692308E-01  0.8560971E-15  0.1972387E-02
    1      -46.317245    -46.315760   1.000000   1.000000
    2       -2.938271     -2.938690   1.000000   1.000000
    3       12.485272     12.485300   0.000000   0.000000
    4       13.237419     13.237251   0.000000   0.000000
    5       14.156568     14.156447   0.000000   0.000000
    6       16.887780     16.887789   0.000000   0.000000
 
 -0.7522389E-17  0.1538462E+00  0.5201265E-14  0.1972387E-02
    1      -46.314590    -46.313104   1.000000   1.000000
    2       -2.589768     -2.590193   1.000000   1.000000
    3       11.410429     11.410350   0.000000   0.000000
    4       12.257524     12.257594   0.000000   0.000000
    5       13.862007     13.861893   0.000000   0.000000
    6       14.941007     14.940631   0.000000   0.000000
 
  0.8333333E-01  0.1538462E+00  0.5153872E-14  0.1972387E-02
    1      -46.312851    -46.311365   1.000000   1.000000
    2       -2.249551     -2.249982   1.000000   1.000000
    3        9.531257      9.531126   0.000000   0.000000
    4       11.231582     11.231590   0.000000   0.000000
    5       13.409974     13.409810   0.000000   0.000000
    6       15.566207     15.565832   0.000000   0.000000
 
  0.1666667E+00  0.1538462E+00  0.5207886E-14  0.1972387E-02
    1      -46.310651    -46.309165   1.000000   1.000000
    2       -1.687046     -1.687489   1.000000   1.000000
    3        7.354763      7.354447   0.000000   0.000000
    4       10.309013     10.308890   0.000000   0.000000
    5       12.749735     12.749522   0.000000   0.000000
    6       16.363204     16.362751   0.000000   0.000000
 
  0.2500000E+00  0.1538462E+00  0.5120848E-14  0.1972387E-02
    1      -46.308534    -46.307046   1.000000   1.000000
    2       -0.913777     -0.914241   1.024255   1.024202
    3        5.337579      5.337234   0.000000   0.000000
    4        9.591378      9.591185   0.000000   0.000000
    5       12.152319     12.152089   0.000000   0.000000
    6       16.848801     16.848594   0.000000   0.000000
 
  0.3333333E+00  0.1538462E+00  0.5184435E-14  0.1972387E-02
    1      -46.307152    -46.305665   1.000000   1.000000
    2        0.005509      0.004998   0.941310   0.941850
    3        3.647517      3.647197   0.000000   0.000000
    4        9.104561      9.104356   0.000000   0.000000
    5       11.732307     11.732079   0.000000   0.000000
    6       17.031907     17.031781   0.000000   0.000000
 
  0.4166667E+00  0.1538462E+00  0.5143336E-14  0.1972387E-02
    1      -46.306748    -46.305261   1.000000   1.000000
    2        0.611573      0.610992   0.296353   0.297898
    3        2.776367      2.776108   0.000000   0.000000
    4        8.860144      8.859933   0.000000   0.000000
    5       11.526909     11.526688   0.000000   0.000000
    6       17.153565     17.153326   0.000000   0.000000
 
  0.5000000E+00  0.1538462E+00  0.5135588E-14  0.1972387E-02
    1      -46.307569    -46.306082   1.000000   1.000000
    2       -0.007269     -0.007785   1.021596   1.021716
    3        3.643453      3.643129   0.000000   0.000000
    4        8.861140      8.860929   0.000000   0.000000
    5       11.540854     11.540641   0.000000   0.000000
    6       17.344699     17.344485   0.000000   0.000000
 
 -0.4166667E+00  0.1538462E+00  0.5277048E-14  0.1972387E-02
    1      -46.309331    -46.307844   1.000000   1.000000
    2       -0.930875     -0.931345   1.000000   1.000000
    3        5.321906      5.321545   0.000000   0.000000
    4        9.106446      9.106244   0.000000   0.000000
    5       11.762376     11.762169   0.000000   0.000000
    6       17.554210     17.553924   0.000000   0.000000
 
 -0.3333333E+00  0.1538462E+00  0.5241872E-14  0.1972387E-02
    1      -46.311519    -46.310033   1.000000   1.000000
    2       -1.703817     -1.704266   1.000000   1.000000
    3        7.327055      7.326693   0.000000   0.000000
    4        9.591743      9.591573   0.000000   0.000000
    5       12.168172     12.167962   0.000000   0.000000
    6       17.479774     17.484707   0.000000   0.000000
 
 -0.2500000E+00  0.1538462E+00  0.5224202E-14  0.1972387E-02
    1      -46.313625    -46.312139   1.000000   1.000000
    2       -2.262811     -2.263246   1.000000   1.000000
    3        9.479234      9.478854   0.000000   0.000000
    4       10.337006     10.336926   0.000000   0.000000
    5       12.726858     12.726642   0.000000   0.000000
    6       17.124506     17.136554   0.000000   0.000000
 
 -0.1666667E+00  0.1538462E+00  0.5202569E-14  0.1972387E-02
    1      -46.315067    -46.313581   1.000000   1.000000
    2       -2.597147     -2.597574   1.000000   1.000000
    3       10.968301     10.968254   0.000000   0.000000
    4       11.799711     11.799639   0.000000   0.000000
    5       13.408343     13.408115   0.000000   0.000000
    6       16.300227     16.300174   0.000000   0.000000
 
 -0.8333333E-01  0.1538462E+00  0.5225873E-14  0.1972387E-02
    1      -46.315410    -46.313924   1.000000   1.000000
    2       -2.705861     -2.706284   1.000000   1.000000
    3       11.766124     11.766168   0.000000   0.000000
    4       12.774439     12.774488   0.000000   0.000000
    5       13.896572     13.896426   0.000000   0.000000
    6       15.697483     15.696733   0.000000   0.000000
 
 -0.1287866E-16  0.2307692E+00 -0.4619796E-14  0.1972387E-02
    1      -46.310987    -46.309500   1.000000   1.000000
    2       -2.012059     -2.012493   1.000000   1.000000
    3        9.913399      9.913239   0.000000   0.000000
    4       10.477646     10.477586   0.000000   0.000000
    5       13.246076     13.245858   0.000000   0.000000
    6       13.882276     13.882592   0.000000   0.000000
 
  0.8333333E-01  0.2307692E+00 -0.4603766E-14  0.1972387E-02
    1      -46.309201    -46.307714   1.000000   1.000000
    2       -1.558170     -1.558613   1.000000   1.000000
    3        8.401418      8.400964   0.000000   0.000000
    4        9.216694      9.216653   0.000000   0.000000
    5       12.721475     12.721256   0.000000   0.000000
    6       14.934621     14.934476   0.000000   0.000000
 
  0.1666667E+00  0.2307692E+00 -0.4680575E-14  0.1972387E-02
    1      -46.307282    -46.305795   1.000000   1.000000
    2       -0.883138     -0.883595   1.030622   1.030581
    3        6.466096      6.465646   0.000000   0.000000
    4        8.298581      8.298471   0.000000   0.000000
    5       12.163469     12.163255   0.000000   0.000000
    6       16.347966     16.347683   0.000000   0.000000
 
  0.2500000E+00  0.2307692E+00 -0.4644744E-14  0.1972387E-02
    1      -46.305815    -46.304327   1.000000   1.000000
    2       -0.004971     -0.005453   0.827337   0.827706
    3        4.628407      4.627975   0.000000   0.000000
    4        7.678689      7.678549   0.000000   0.000000
    5       11.712174     11.711975   0.000000   0.000000
    6       17.382865     17.382410   0.000000   0.000000
 
  0.3333333E+00  0.2307692E+00 -0.4727804E-14  0.1972387E-02
    1      -46.305156    -46.303668   1.000000   1.000000
    2        0.943409      0.942867   0.042772   0.043013
    3        3.169688      3.169308   0.000000   0.000000
    4        7.317160      7.317007   0.000000   0.000000
    5       11.426746     11.426560   0.000000   0.000000
    6       18.012301     18.012549   0.000000   0.000000
 
  0.4166667E+00  0.2307692E+00 -0.4618279E-14  0.1972387E-02
    1      -46.305508    -46.304021   1.000000   1.000000
    2        0.933985      0.933435  -0.009489  -0.009308
    3        3.147565      3.147189   0.000000   0.000000
    4        7.217688      7.217535   0.000000   0.000000
    5       11.324238     11.324059   0.000000   0.000000
    6       18.276625     18.276017   0.000000   0.000000
 
  0.5000000E+00  0.2307692E+00 -0.4681538E-14  0.1972387E-02
    1      -46.306764    -46.305277   1.000000   1.000000
    2       -0.028300     -0.028794   0.947906   0.948263
    3        4.537185      4.536748   0.000000   0.000000
    4        7.404870      7.404731   0.000000   0.000000
    5       11.401498     11.401316   0.000000   0.000000
    6       17.988203     17.989202   0.000000   0.000000
 
 -0.4166667E+00  0.2307692E+00 -0.4611413E-14  0.1972387E-02
    1      -46.308580    -46.307093   1.000000   1.000000
    2       -0.911214     -0.911682   1.001055   1.001024
    3        6.182960      6.182491   0.000000   0.000000
    4        7.981843      7.981734   0.000000   0.000000
    5       11.646154     11.645955   0.000000   0.000000
    6       17.343791     17.345492   0.000000   0.000000
 
 -0.3333333E+00  0.2307692E+00 -0.4556383E-14  0.1972387E-02
    1      -46.310473    -46.308987   1.000000   1.000000
    2       -1.583617     -1.584069   1.000000   1.000000
    3        7.560910      7.560512   0.000000   0.000000
    4        9.270640      9.270507   0.000000   0.000000
    5       12.048376     12.048145   0.000000   0.000000
    6       16.574785     16.574976   0.000000   0.000000
 
 -0.2500000E+00  0.2307692E+00 -0.4568667E-14  0.1972387E-02
    1      -46.311958    -46.310472   1.000000   1.000000
    2       -2.029657     -2.030099   1.000000   1.000000
    3        8.601911      8.601746   0.000000   0.000000
    4       11.036232     11.036171   0.000000   0.000000
    5       12.646066     12.645765   0.000000   0.000000
    6       15.371270     15.371073   0.000000   0.000000
 
 -0.1666667E+00  0.2307692E+00 -0.4619479E-14  0.1972387E-02
    1      -46.312625    -46.311138   1.000000   1.000000
    2       -2.248694     -2.249130   1.000000   1.000000
    3        9.630991      9.630950   0.000000   0.000000
    4       11.853603     11.853584   0.000000   0.000000
    5       13.213510     13.213240   0.000000   0.000000
    6       15.172684     15.172746   0.000000   0.000000
 
 -0.8333333E-01  0.2307692E+00 -0.4612048E-14  0.1972387E-02
    1      -46.312267    -46.310781   1.000000   1.000000
    2       -2.242435     -2.242868   1.000000   1.000000
    3       10.569233     10.569185   0.000000   0.000000
    4       11.111163     11.111198   0.000000   0.000000
    5       13.318031     13.317849   0.000000   0.000000
    6       14.570274     14.569755   0.000000   0.000000
 
  0.1271080E-16  0.3076923E+00 -0.2278562E-15  0.1972387E-02
    1      -46.307213    -46.305726   1.000000   1.000000
    2       -1.210404     -1.210854   1.000000   1.000000
    3        7.579825      7.579474   0.000000   0.000000
    4        9.705642      9.705554   0.000000   0.000000
    5       12.658085     12.657790   0.000000   0.000000
    6       13.133225     13.133694   0.000000   0.000000
 
  0.8333333E-01  0.3076923E+00 -0.2395816E-15  0.1972387E-02
    1      -46.305671    -46.304184   1.000000   1.000000
    2       -0.651709     -0.652169   1.045809   1.045777
    3        6.455422      6.454982   0.000000   0.000000
    4        8.420501      8.420410   0.000000   0.000000
    5       12.131108     12.130852   0.000000   0.000000
    6       14.352972     14.352908   0.000000   0.000000
 
  0.1666667E+00  0.3076923E+00 -0.3163908E-15  0.1972387E-02
    1      -46.304369    -46.302881   1.000000   1.000000
    2        0.121786      0.121311   0.729742   0.730152
    3        5.228524      5.227981   0.000000   0.000000
    4        7.110394      7.110365   0.000000   0.000000
    5       11.712718     11.712500   0.000000   0.000000
    6       16.164154     16.163970   0.000000   0.000000
 
  0.2500000E+00  0.3076923E+00 -0.2963834E-15  0.1972387E-02
    1      -46.303680    -46.302192   1.000000   1.000000
    2        1.088181      1.087679   0.009652   0.009823
    3        3.828153      3.827602   0.000000   0.000000
    4        6.365222      6.365197   0.000000   0.000000
    5       11.407902     11.407713   0.000000   0.000000
    6       17.918808     17.942382   0.000000   0.000000
 
  0.3333333E+00  0.3076923E+00 -0.3120860E-15  0.1972387E-02
    1      -46.303735    -46.302247   1.000000   1.000000
    2        1.950085      1.949519  -0.007548  -0.007565
    3        2.733669      2.733187   0.000000   0.000000
    4        6.114724      6.114686   0.000000   0.000000
    5       11.235800     11.235625   0.000000   0.000000
    6       18.999327     19.027369   0.000000   0.000000
 
  0.4166667E+00  0.3076923E+00 -0.3056285E-15  0.1972387E-02
    1      -46.304517    -46.303030   1.000000   1.000000
    2        1.069503      1.068974  -0.027695  -0.027638
    3        3.628834      3.628331   0.000000   0.000000
    4        6.341250      6.341195   0.000000   0.000000
    5       11.202296     11.202120   0.000000   0.000000
    6       18.045237     18.045461   0.000000   0.000000
 
  0.5000000E+00  0.3076923E+00 -0.3609332E-15  0.1972387E-02
    1      -46.305915    -46.304429   1.000000   1.000000
    2        0.080831      0.080329   0.844470   0.844966
    3        4.702374      4.701917   0.000000   0.000000
    4        7.212806      7.212693   0.000000   0.000000
    5       11.305574     11.305375   0.000000   0.000000
    6       17.146873     17.146624   0.000000   0.000000
 
 -0.4166667E+00  0.3076923E+00 -0.2303678E-15  0.1972387E-02
    1      -46.307441    -46.305953   1.000000   1.000000
    2       -0.695989     -0.696470   1.014023   1.013954
    3        5.564011      5.563636   0.000000   0.000000
    4        8.741146      8.740975   0.000000   0.000000
    5       11.553189     11.552944   0.000000   0.000000
    6       16.025387     16.025419   0.000000   0.000000
 
 -0.3333333E+00  0.3076923E+00 -0.2361949E-15  0.1972387E-02
    1      -46.308718    -46.307231   1.000000   1.000000
    2       -1.246027     -1.246493   1.000000   1.000000
    3        6.407959      6.407631   0.000000   0.000000
    4       10.424249     10.424201   0.000000   0.000000
    5       12.033826     12.033476   0.000000   0.000000
    6       14.561921     14.561620   0.000000   0.000000
 
 -0.2500000E+00  0.3076923E+00 -0.2386186E-15  0.1972387E-02
    1      -46.309412    -46.307925   1.000000   1.000000
    2       -1.569777     -1.570231   1.000000   1.000000
    3        7.366026      7.365742   0.000000   0.000000
    4       11.007872     11.007817   0.000000   0.000000
    5       12.514899     12.514546   0.000000   0.000000
    6       14.474085     14.473710   0.000000   0.000000
 
 -0.1666667E+00  0.3076923E+00 -0.2344775E-15  0.1972387E-02
    1      -46.309375    -46.307888   1.000000   1.000000
    2       -1.670415     -1.670862   1.000000   1.000000
    3        8.439920      8.439698   0.000000   0.000000
    4       10.101442     10.101413   0.000000   0.000000
    5       12.580300     12.580062   0.000000   0.000000
    6       15.358018     15.357584   0.000000   0.000000
 
 -0.8333333E-01  0.3076923E+00 -0.2577642E-15  0.1972387E-02
    1      -46.308555    -46.307068   1.000000   1.000000
    2       -1.550183     -1.550629   1.000000   1.000000
    3        8.744790      8.744493   0.000000   0.000000
    4        9.580227      9.580203   0.000000   0.000000
    5       12.666126     12.665890   0.000000   0.000000
    6       14.069056     14.068925   0.000000   0.000000
 
  0.4818818E-16  0.3846154E+00  0.5695792E-15  0.1972387E-02
    1      -46.304055    -46.302567   1.000000   1.000000
    2       -0.222767     -0.223240   1.053852   1.053948
    3        5.519269      5.518900   0.000000   0.000000
    4        9.176279      9.176183   0.000000   0.000000
    5       12.226127     12.225782   0.000000   0.000000
    6       12.609191     12.610014   0.000000   0.000000
 
  0.8333333E-01  0.3846154E+00  0.5063199E-15  0.1972387E-02
    1      -46.303098    -46.301611   1.000000   1.000000
    2        0.386073      0.385585   0.489369   0.489947
    3        4.653929      4.653523   0.000000   0.000000
    4        8.098408      8.098286   0.000000   0.000000
    5       11.746724     11.746449   0.000000   0.000000
    6       13.905836     13.905949   0.000000   0.000000
 
  0.1666667E+00  0.3846154E+00  0.6078908E-15  0.1972387E-02
    1      -46.302580    -46.301092   1.000000   1.000000
    2        1.141740      1.141232  -0.027937  -0.027848
    3        3.905210      3.904721   0.000000   0.000000
    4        6.754653      6.754586   0.000000   0.000000
    5       11.461164     11.460942   0.000000   0.000000
    6       15.873611     15.873417   0.000000   0.000000
 
  0.2500000E+00  0.3846154E+00  0.5446315E-15  0.1972387E-02
    1      -46.302567    -46.301079   1.000000   1.000000
    2        1.898733      1.898212  -0.003780  -0.003792
    3        3.190279      3.189700   0.000000   0.000000
    4        5.931295      5.931309   0.000000   0.000000
    5       11.274869     11.274679   0.000000   0.000000
    6       17.826693     17.714913   0.000000   0.000000
 
  0.3333333E+00  0.3846154E+00  0.4338156E-15  0.1972387E-02
    1      -46.303104    -46.301616   1.000000   1.000000
    2        1.882426      1.881850   0.000000   0.000000
    3        3.020274      3.019785   0.000000   0.000000
    4        6.009615      6.009590   0.000000   0.000000
    5       11.176331     11.176148   0.000000   0.000000
    6       17.791270     17.790971   0.000000   0.000000
 
  0.4166667E+00  0.3846154E+00  0.5433409E-15  0.1972387E-02
    1      -46.304071    -46.302584   1.000000   1.000000
    2        1.069812      1.069246  -0.029274  -0.029265
    3        3.447417      3.447039   0.000000   0.000000
    4        6.978205      6.978069   0.000000   0.000000
    5       11.170581     11.170376   0.000000   0.000000
    6       16.974975     16.974682   0.000000   0.000000
 
  0.5000000E+00  0.3846154E+00  0.4721271E-15  0.1972387E-02
    1      -46.305172    -46.303684   1.000000   1.000000
    2        0.299696      0.299160   0.633632   0.634553
    3        3.926557      3.926233   0.000000   0.000000
    4        8.492642      8.492456   0.000000   0.000000
    5       11.281585     11.281330   0.000000   0.000000
    6       15.639498     15.639266   0.000000   0.000000
 
 -0.4166667E+00  0.3846154E+00  0.5594492E-15  0.1972387E-02
    1      -46.306113    -46.304626   1.000000   1.000000
    2       -0.297987     -0.298494   1.041794   1.041764
    3        4.537724      4.537415   0.000000   0.000000
    4       10.030258     10.030225   0.000000   0.000000
    5       11.642901     11.642518   0.000000   0.000000
    6       13.989589     13.989246   0.000000   0.000000
 
 -0.3333333E+00  0.3846154E+00  0.6032481E-15  0.1972387E-02
    1      -46.306636    -46.305149   1.000000   1.000000
    2       -0.695019     -0.695505   1.000000   1.000000
    3        5.327926      5.327613   0.000000   0.000000
    4       10.376399     10.376334   0.000000   0.000000
    5       11.955828     11.955431   0.000000   0.000000
    6       13.937041     13.936762   0.000000   0.000000
 
 -0.2500000E+00  0.3846154E+00  0.5568282E-15  0.1972387E-02
    1      -46.306626    -46.305139   1.000000   1.000000
    2       -0.884818     -0.885289   1.000000   1.000000
    3        6.292744      6.292407   0.000000   0.000000
    4        9.318796      9.318625   0.000000   0.000000
    5       11.929354     11.929089   0.000000   0.000000
    6       15.899542     15.899817   0.000000   0.000000
 
 -0.1666667E+00  0.3846154E+00  0.5708698E-15  0.1972387E-02
    1      -46.306099    -46.304612   1.000000   1.000000
    2       -0.867375     -0.867839   1.000000   1.000000
    3        7.205792      7.205329   0.000000   0.000000
    4        8.202375      8.202287   0.000000   0.000000
    5       12.039973     12.039742   0.000000   0.000000
    6       15.381597     15.381231   0.000000   0.000000
 
 -0.8333333E-01  0.3846154E+00  0.6328385E-15  0.1972387E-02
    1      -46.305129    -46.303642   1.000000   1.000000
    2       -0.644922     -0.645387   1.022471   1.022410
    3        6.531543      6.531162   0.000000   0.000000
    4        8.807254      8.807134   0.000000   0.000000
    5       12.095940     12.095672   0.000000   0.000000
    6       13.773055     13.773068   0.000000   0.000000
 
 -0.7889673E-17  0.4615385E+00  0.4957542E-14  0.1972387E-02
    1      -46.302255    -46.300767   1.000000   1.000000
    2        0.736237      0.735723   0.078143   0.078557
    3        4.014292      4.013945   0.000000   0.000000
    4        8.907756      8.907657   0.000000   0.000000
    5       12.001814     12.001441   0.000000   0.000000
    6       12.337456     12.338352   0.000000   0.000000
 
  0.8333333E-01  0.4615385E+00  0.4922038E-14  0.1972387E-02
    1      -46.302067    -46.300579   1.000000   1.000000
    2        1.037685      1.037158  -0.029173  -0.029251
    3        3.748477      3.748113   0.000000   0.000000
    4        8.062623      8.062492   0.000000   0.000000
    5       11.609138     11.608851   0.000000   0.000000
    6       13.659258     13.659558   0.000000   0.000000
 
  0.1666667E+00  0.4615385E+00  0.4984007E-14  0.1972387E-02
    1      -46.302257    -46.300768   1.000000   1.000000
    2        1.139608      1.139089  -0.037520  -0.037562
    3        3.965614      3.965152   0.000000   0.000000
    4        6.827871      6.827785   0.000000   0.000000
    5       11.436308     11.436081   0.000000   0.000000
    6       15.665319     15.665286   0.000000   0.000000
 
  0.2500000E+00  0.4615385E+00  0.4912793E-14  0.1972387E-02
    1      -46.302758    -46.301269   1.000000   1.000000
    2        1.079881      1.079360  -0.050330  -0.050322
    3        4.169718      4.169176   0.000000   0.000000
    4        6.282694      6.282676   0.000000   0.000000
    5       11.326378     11.326178   0.000000   0.000000
    6       17.009328     17.009230   0.000000   0.000000
 
  0.3333333E+00  0.4615385E+00  0.4905045E-14  0.1972387E-02
    1      -46.303485    -46.301997   1.000000   1.000000
    2        0.962150      0.961597  -0.051024  -0.051014
    3        3.723453      3.723071   0.000000   0.000000
    4        7.080828      7.080686   0.000000   0.000000
    5       11.253640     11.253427   0.000000   0.000000
    6       16.818233     16.818007   0.000000   0.000000
 
  0.4166667E+00  0.4615385E+00  0.4911503E-14  0.1972387E-02
    1      -46.304218    -46.302729   1.000000   1.000000
    2        0.780720      0.780132  -0.044483  -0.044548