 running on   12 total cores
 distrk:  each k-point on   12 cores,    1 groups
 distr:  one band on    6 cores,    2 groups
 using from now: INCAR     
 vasp.6.1.2 22Jul20 (build Mar 20 2021 11:25:07) complex                        
  
 POSCAR found type information on POSCAR Li
 POSCAR found :  1 types and       1 ions
 scaLAPACK will be used
 -----------------------------------------------------------------------------
|                                                                             |
|               ----> ADVICE to this user running VASP <----                  |
|                                                                             |
|     You have a (more or less) 'small supercell' and for smaller cells       |
|     it is recommended to use the reciprocal-space projection scheme!        |
|     The real-space optimization is not efficient for small cells and it     |
|     is also less accurate ...                                               |
|     Therefore, set LREAL=.FALSE. in the INCAR file.                         |
|                                                                             |
 -----------------------------------------------------------------------------

 LDA part: xc-table for Pade appr. of Perdew
 generate k-points for:   12   13   13
 POSCAR, INCAR and KPOINTS ok, starting setup
 FFT: planning ...
 WAVECAR not read
 entering main loop
       N       E                     dE             d eps       ncg     rms          rms(c)
DAV:   1     0.618487027894E+00    0.61849E+00   -0.71075E+02 13386   0.344E+02
DAV:   2    -0.150170719291E+01   -0.21202E+01   -0.20708E+01 18624   0.486E+01
DAV:   3    -0.158489168666E+01   -0.83184E-01   -0.82949E-01 16722   0.661E+00
DAV:   4    -0.158647615302E+01   -0.15845E-02   -0.15795E-02 19296   0.855E-01
DAV:   5    -0.158648451097E+01   -0.83579E-05   -0.83302E-05 17460   0.538E-02    0.546E+00
RMM:   6    -0.181273518479E+01   -0.22625E+00   -0.65505E-02 15509   0.237E+00    0.260E+00
RMM:   7    -0.188664806595E+01   -0.73913E-01   -0.22235E-02 14957   0.152E+00    0.183E-01
RMM:   8    -0.188805517921E+01   -0.14071E-02   -0.90207E-03 16588   0.846E-01    0.930E-02
RMM:   9    -0.188828561374E+01   -0.23043E-03   -0.24140E-03 19242   0.453E-01    0.325E-02
RMM:  10    -0.188863491523E+01   -0.34930E-03   -0.13462E-03 18336   0.328E-01    0.267E-02
WARNING in EDDRMM: call to ZHEGV failed, returncode =   8  4      3
RMM:  11    -0.188868389568E+01   -0.48980E-04   -0.28209E-04 20529   0.139E-01    0.201E-02
WARNING in EDDRMM: call to ZHEGV failed, returncode =   6  3      3
RMM:  12    -0.188869132778E+01   -0.74321E-05   -0.13711E-04 19480   0.102E-01    0.950E-03
RMM:  13    -0.188870596234E+01   -0.14635E-04   -0.37049E-05 17482   0.616E-02    0.525E-03
RMM:  14    -0.188870823470E+01   -0.22724E-05   -0.15216E-05 13340   0.364E-02
   1 F= -.18887082E+01 E0= -.18887082E+01  d E =0.000000E+00  mag=    -0.0001
 -----------------------------------------------------------------------------
|                                                                             |
|           W    W    AA    RRRRR   N    N  II  N    N   GGGG   !!!           |
|           W    W   A  A   R    R  NN   N  II  NN   N  G    G  !!!           |
|           W    W  A    A  R    R  N N  N  II  N N  N  G       !!!           |
|           W WW W  AAAAAA  RRRRR   N  N N  II  N  N N  G  GGG   !            |
|           WW  WW  A    A  R   R   N   NN  II  N   NN  G    G                |
|           W    W  A    A  R    R  N    N  II  N    N   GGGG   !!!           |
|                                                                             |
|     Tetrahedron method does not include variations of the Fermi             |
|     occupations, so forces and stress will be inaccurate. We suggest        |
|     using a different smearing scheme ISMEAR = 1 or 2 for metals in         |
|     relaxations.                                                            |
|                                                                             |
 -----------------------------------------------------------------------------

