 running on   12 total cores
 distrk:  each k-point on   12 cores,    1 groups
 distr:  one band on    6 cores,    2 groups
 using from now: INCAR     
 vasp.6.1.2 22Jul20 (build Mar 20 2021 11:25:07) complex                        
  
 POSCAR found type information on POSCAR LiN 
 POSCAR found :  2 types and       4 ions
 scaLAPACK will be used
 -----------------------------------------------------------------------------
|                                                                             |
|               ----> ADVICE to this user running VASP <----                  |
|                                                                             |
|     You have a (more or less) 'small supercell' and for smaller cells       |
|     it is recommended to use the reciprocal-space projection scheme!        |
|     The real-space optimization is not efficient for small cells and it     |
|     is also less accurate ...                                               |
|     Therefore, set LREAL=.FALSE. in the INCAR file.                         |
|                                                                             |
 -----------------------------------------------------------------------------

 LDA part: xc-table for Pade appr. of Perdew
 generate k-points for:   12   11    7
 POSCAR, INCAR and KPOINTS ok, starting setup
 FFT: planning ...
 WAVECAR not read
 entering main loop
       N       E                     dE             d eps       ncg     rms          rms(c)
DAV:   1     0.865354145369E+02    0.86535E+02   -0.84933E+03 25944   0.119E+03
DAV:   2    -0.230776605355E+02   -0.10961E+03   -0.10615E+03 33972   0.271E+02
DAV:   3    -0.284908058225E+02   -0.54131E+01   -0.53921E+01 35880   0.655E+01
DAV:   4    -0.287166869289E+02   -0.22588E+00   -0.22576E+00 39836   0.112E+01
DAV:   5    -0.287196232432E+02   -0.29363E-02   -0.29361E-02 35670   0.135E+00    0.129E+01
RMM:   6    -0.275100635142E+02    0.12096E+01   -0.39521E+00 28211   0.139E+01    0.593E+00
RMM:   7    -0.274522124627E+02    0.57851E-01   -0.68127E-01 33487   0.773E+00    0.340E+00
RMM:   8    -0.274325830731E+02    0.19629E-01   -0.28738E-01 37239   0.430E+00    0.168E+00
RMM:   9    -0.274462450773E+02   -0.13662E-01   -0.76849E-02 40178   0.237E+00    0.647E-01
RMM:  10    -0.274471958859E+02   -0.95081E-03   -0.25527E-02 42316   0.126E+00    0.156E-01
RMM:  11    -0.274487513830E+02   -0.15555E-02   -0.10921E-02 44574   0.730E-01    0.907E-02
RMM:  12    -0.274494780944E+02   -0.72671E-03   -0.51318E-03 47706   0.459E-01    0.563E-02
RMM:  13    -0.274497425709E+02   -0.26448E-03   -0.21587E-03 47259   0.292E-01    0.219E-02
RMM:  14    -0.274498666335E+02   -0.12406E-03   -0.99388E-04 46020   0.204E-01    0.154E-02
RMM:  15    -0.274499224269E+02   -0.55793E-04   -0.46392E-04 43122   0.133E-01    0.937E-03
RMM:  16    -0.274499461852E+02   -0.23758E-04   -0.20838E-04 39804   0.913E-02    0.242E-03
RMM:  17    -0.274499577403E+02   -0.11555E-04   -0.93395E-05 34460   0.672E-02    0.228E-03
RMM:  18    -0.274499618175E+02   -0.40771E-05   -0.40921E-05 30462   0.543E-02
   1 F= -.27449962E+02 E0= -.27449962E+02  d E =0.000000E+00  mag=     0.0000
