       N       E                     dE             d eps       ncg     rms          rms(c)
DAV:   1     0.241546011170E+03    0.24155E+03   -0.16961E+04  7296   0.120E+03
DAV:   2    -0.159305556092E+02   -0.25748E+03   -0.24580E+03  8584   0.317E+02
DAV:   3    -0.381627050493E+02   -0.22232E+02   -0.21950E+02 12312   0.741E+01
DAV:   4    -0.393030483358E+02   -0.11403E+01   -0.11366E+01 10040   0.167E+01
DAV:   5    -0.393226092511E+02   -0.19561E-01   -0.19560E-01 10488   0.203E+00    0.178E+01
RMM:   6    -0.382233411323E+02    0.10993E+01   -0.35850E+00  8115   0.910E+00    0.780E+00
RMM:   7    -0.388299312791E+02   -0.60659E+00   -0.48432E-01  8645   0.406E+00    0.388E+00
RMM:   8    -0.388946281863E+02   -0.64697E-01   -0.19482E-01  9902   0.248E+00    0.156E+00
RMM:   9    -0.389009285486E+02   -0.63004E-02   -0.64994E-02 10580   0.159E+00    0.389E-01
RMM:  10    -0.389074178161E+02   -0.64893E-02   -0.27038E-02 11685   0.841E-01    0.178E-01
RMM:  11    -0.389101947510E+02   -0.27769E-02   -0.10551E-02 12119   0.466E-01    0.107E-01
RMM:  12    -0.389109538492E+02   -0.75910E-03   -0.40042E-03 12595   0.271E-01    0.715E-02
RMM:  13    -0.389111879891E+02   -0.23414E-03   -0.15374E-03 12081   0.183E-01    0.247E-02
RMM:  14    -0.389113209595E+02   -0.13297E-03   -0.69029E-04 12110   0.123E-01    0.820E-03
RMM:  15    -0.389113585403E+02   -0.37581E-04   -0.28917E-04 11689   0.722E-02    0.711E-03
RMM:  16    -0.389113722127E+02   -0.13672E-04   -0.11616E-04 10936   0.467E-02    0.334E-03
RMM:  17    -0.389113777369E+02   -0.55242E-05   -0.46294E-05  9669   0.326E-02
   1 F= -.38911378E+02 E0= -.38911378E+02  d E =0.000000E+00  mag=     0.0000
