 running on   24 total cores
 distrk:  each k-point on   24 cores,    1 groups
 distr:  one band on    6 cores,    4 groups
 using from now: INCAR     
 vasp.6.1.2 22Jul20 (build Mar 31 2021 18:09:49) complex                        
  
 POSCAR found type information on POSCAR LiP 
 POSCAR found :  2 types and       8 ions
 scaLAPACK will be used
 -----------------------------------------------------------------------------
|                                                                             |
|               ----> ADVICE to this user running VASP <----                  |
|                                                                             |
|     You have a (more or less) 'small supercell' and for smaller cells       |
|     it is recommended to use the reciprocal-space projection scheme!        |
|     The real-space optimization is not efficient for small cells and it     |
|     is also less accurate ...                                               |
|     Therefore, set LREAL=.FALSE. in the INCAR file.                         |
|                                                                             |
 -----------------------------------------------------------------------------

 LDA part: xc-table for Pade appr. of Perdew
 generate k-points for:    9    9    4
 POSCAR, INCAR and KPOINTS ok, starting setup
 FFT: planning ...
 WAVECAR not read
 entering main loop
       N       E                     dE             d eps       ncg     rms          rms(c)
DAV:   1     0.158533053021E+03    0.15853E+03   -0.11778E+04  9120   0.118E+03
DAV:   2     0.184634330895E+01   -0.15669E+03   -0.14780E+03  9944   0.299E+02
DAV:   3    -0.236114117530E+02   -0.25458E+02   -0.25224E+02 16240   0.698E+01
DAV:   4    -0.264094064509E+02   -0.27980E+01   -0.27764E+01 13496   0.310E+01
DAV:   5    -0.266100895945E+02   -0.20068E+00   -0.20067E+00 14496   0.669E+00    0.149E+01
RMM:   6    -0.270740863485E+02   -0.46400E+00   -0.16322E+00 11134   0.630E+00    0.755E+00
RMM:   7    -0.277790935654E+02   -0.70501E+00   -0.49226E-01 12581   0.425E+00    0.284E+00
RMM:   8    -0.278501172051E+02   -0.71024E-01   -0.38867E-01 14333   0.285E+00    0.118E+00
RMM:   9    -0.278589524382E+02   -0.88352E-02   -0.96266E-02 15165   0.169E+00    0.517E-01
RMM:  10    -0.278671529563E+02   -0.82005E-02   -0.42523E-02 15864   0.101E+00    0.267E-01
RMM:  11    -0.278693217654E+02   -0.21688E-02   -0.15678E-02 16169   0.584E-01    0.196E-01
RMM:  12    -0.278700830274E+02   -0.76126E-03   -0.58944E-03 15802   0.446E-01    0.504E-02
RMM:  13    -0.278706739522E+02   -0.59092E-03   -0.33128E-03 16248   0.273E-01    0.185E-02
RMM:  14    -0.278708833441E+02   -0.20939E-03   -0.16858E-03 15963   0.176E-01    0.221E-02
RMM:  15    -0.278709740946E+02   -0.90751E-04   -0.77850E-04 14296   0.117E-01    0.194E-02
RMM:  16    -0.278710206879E+02   -0.46593E-04   -0.40776E-04 14120   0.848E-02    0.264E-02
RMM:  17    -0.278710383998E+02   -0.17712E-04   -0.22705E-04 13793   0.703E-02    0.168E-02
RMM:  18    -0.278710532505E+02   -0.14851E-04   -0.13616E-04 12856   0.523E-02    0.152E-02
RMM:  19    -0.278710612161E+02   -0.79656E-05   -0.89824E-05 11924   0.436E-02
   1 F= -.27871061E+02 E0= -.27871061E+02  d E =0.000000E+00  mag=    -0.0001
