    4    4    1    2
  0.1248976E+02  0.3630402E-09  0.3300365E-09  0.4988583E-09  0.5000000E-15
  1.000000000000000E-004
  CAR 
 unknown system                          
     18    386     14
 
  0.0000000E+00  0.0000000E+00  0.0000000E+00  0.1298701E-02
    1      -44.177394    -44.177082   1.000000   1.000000
    2      -22.077414    -22.077412   1.000000   1.000000
    3      -17.737667    -17.737665   1.000000   1.000000
    4       -7.036179     -7.036178   1.000000   1.000000
    5       -5.798471     -5.798469   1.000000   1.000000
    6       -5.570522     -5.570524   1.000000   1.000000
    7       -4.065094     -4.065093   1.000000   1.000000
    8       -0.101701     -0.101698   1.000000   1.000000
    9        0.157262      0.157263   1.000000   1.000000
   10        5.426354      5.426338   0.000000   0.000000
   11        5.644170      5.644169   0.000000   0.000000
   12        5.949291      5.949292   0.000000   0.000000
   13        9.029542      9.029484   0.000000   0.000000
   14       10.805543     10.799903   0.000000   0.000000
 
  0.1000000E+00  0.3933994E-18  0.2430493E-16  0.2597403E-02
    1      -44.177226    -44.176914   1.000000   1.000000
    2      -22.067404    -22.067401   1.000000   1.000000
    3      -17.732671    -17.732669   1.000000   1.000000
    4       -7.002628     -7.002627   1.000000   1.000000
    5       -5.885325     -5.885323   1.000000   1.000000
    6       -5.582076     -5.582078   1.000000   1.000000
    7       -4.078084     -4.078084   1.000000   1.000000
    8       -0.216927     -0.216926   1.000000   1.000000
    9        0.113774      0.113775   1.000000   1.000000
   10        5.352567      5.352565   0.000000   0.000000
   11        5.761703      5.761701   0.000000   0.000000
   12        6.037937      6.037937   0.000000   0.000000
   13        9.229362      9.229294   0.000000   0.000000
   14       10.852126     10.852202   0.000000   0.000000
 
  0.2000000E+00  0.7867988E-18  0.4860987E-16  0.2597403E-02
    1      -44.176702    -44.176390   1.000000   1.000000
    2      -22.040897    -22.040897   1.000000   1.000000
    3      -17.719401    -17.719397   1.000000   1.000000
    4       -6.914988     -6.914988   1.000000   1.000000
    5       -6.098436     -6.098434   1.000000   1.000000
    6       -5.611885     -5.611887   1.000000   1.000000
    7       -4.115894     -4.115893   1.000000   1.000000
    8       -0.518031     -0.518032   1.000000   1.000000
    9        0.018491      0.018491   1.000000   1.000000
   10        5.135164      5.135162   0.000000   0.000000
   11        5.819559      5.819558   0.000000   0.000000
   12        6.559816      6.559375   0.000000   0.000000
   13        9.741820      9.741565   0.000000   0.000000
   14       10.928393     10.927144   0.000000   0.000000
 
  0.3000000E+00  0.7428786E-16  0.1313895E-15  0.2597403E-02
    1      -44.176067    -44.175755   1.000000   1.000000
    2      -22.007811    -22.007810   1.000000   1.000000
    3      -17.703012    -17.703009   1.000000   1.000000
    4       -6.821636     -6.821635   1.000000   1.000000
    5       -6.319332     -6.319330   1.000000   1.000000
    6       -5.648189     -5.648191   1.000000   1.000000
    7       -4.173405     -4.173403   1.000000   1.000000
    8       -0.867426     -0.867429   1.000000   1.000000
    9       -0.087715     -0.087714   1.000000   1.000000
   10        4.812283      4.812280   0.000000   0.000000
   11        5.888739      5.888739   0.000000   0.000000
   12        7.302272      7.301989   0.000000   0.000000
   13       10.266870     10.266126   0.000000   0.000000
   14       10.768772     10.767679   0.000000   0.000000
 
  0.4000000E+00  0.1046779E-15  0.1593212E-15  0.2597403E-02
    1      -44.175560    -44.175248   1.000000   1.000000
    2      -21.980756    -21.980754   1.000000   1.000000
    3      -17.689786    -17.689784   1.000000   1.000000
    4       -6.807502     -6.807501   1.000000   1.000000
    5       -6.413668     -6.413667   1.000000   1.000000
    6       -5.677199     -5.677202   1.000000   1.000000
    7       -4.232281     -4.232279   1.000000   1.000000
    8       -1.129100     -1.129105   1.000000   1.000000
    9       -0.169608     -0.169608   1.000000   1.000000
   10        4.542618      4.542613   0.000000   0.000000
   11        5.946261      5.946262   0.000000   0.000000
   12        7.948371      7.948343   0.000000   0.000000
   13       10.320052     10.319379   0.000000   0.000000
   14       10.705866     10.704721   0.000000   0.000000
 
  0.5000000E+00  0.2852787E-16  0.1400055E-15  0.1298701E-02
    1      -44.175372    -44.175059   1.000000   1.000000
    2      -21.970380    -21.970378   1.000000   1.000000
    3      -17.684747    -17.684744   1.000000   1.000000
    4       -6.831966     -6.831965   1.000000   1.000000
    5       -6.414001     -6.414000   1.000000   1.000000
    6       -5.688204     -5.688206   1.000000   1.000000
    7       -4.258655     -4.258653   1.000000   1.000000
    8       -1.224211     -1.224217   1.000000   1.000000
    9       -0.200156     -0.200157   1.000000   1.000000
   10        4.439727      4.439723   0.000000   0.000000
   11        5.967384      5.967385   0.000000   0.000000
   12        8.200869      8.200863   0.000000   0.000000
   13       10.247135     10.246964   0.000000   0.000000
   14       10.747195     10.747154   0.000000   0.000000
 
 -0.2634920E-17  0.9090909E-01 -0.9627517E-17  0.2597403E-02
    1      -44.177094    -44.176781   1.000000   1.000000
    2      -22.063833    -22.063831   1.000000   1.000000
    3      -17.730889    -17.730886   1.000000   1.000000
    4       -6.999340     -6.999339   1.000000   1.000000
    5       -5.825726     -5.825724   1.000000   1.000000
    6       -5.651366     -5.651368   1.000000   1.000000
    7       -4.074559     -4.074559   1.000000   1.000000
    8       -0.145076     -0.145073   1.000000   1.000000
    9        0.029333      0.029333   1.000000   1.000000
   10        5.406785      5.406784   0.000000   0.000000
   11        5.701227      5.701227   0.000000   0.000000
   12        6.038676      6.038675   0.000000   0.000000
   13        9.217547      9.217482   0.000000   0.000000
   14       10.836350     10.832637   0.000000   0.000000
 
  0.1000000E+00  0.9090909E-01  0.2095389E-16  0.2597403E-02
    1      -44.177103    -44.176790   1.000000   1.000000
    2      -22.063416    -22.063414   1.000000   1.000000
    3      -17.733134    -17.733131   1.000000   1.000000
    4       -6.978902     -6.978902   1.000000   1.000000
    5       -5.832793     -5.832791   1.000000   1.000000
    6       -5.655974     -5.655976   1.000000   1.000000
    7       -4.102179     -4.102177   1.000000   1.000000
    8       -0.188101     -0.188098   1.000000   1.000000
    9        0.096893      0.096894   1.000000   1.000000
   10        5.351572      5.351570   0.000000   0.000000
   11        5.849396      5.849397   0.000000   0.000000
   12        5.992596      5.992588   0.000000   0.000000
   13        9.171851      9.171796   0.000000   0.000000
   14       10.760011     10.755826   0.000000   0.000000
 
  0.2000000E+00  0.9090909E-01  0.5979903E-16  0.2597403E-02
    1      -44.176771    -44.176459   1.000000   1.000000
    2      -22.044599    -22.044600   1.000000   1.000000
    3      -17.725784    -17.725781   1.000000   1.000000
    4       -6.896960     -6.896960   1.000000   1.000000
    5       -5.996094     -5.996093   1.000000   1.000000
    6       -5.676745     -5.676746   1.000000   1.000000
    7       -4.153589     -4.153588   1.000000   1.000000
    8       -0.391981     -0.391980   1.000000   1.000000
    9        0.040112      0.040113   1.000000   1.000000
   10        5.265828      5.265826   0.000000   0.000000
   11        5.758523      5.758524   0.000000   0.000000
   12        6.437603      6.437471   0.000000   0.000000
   13        9.503090      9.502982   0.000000   0.000000
   14       10.785303     10.782950   0.000000   0.000000
 
  0.3000000E+00  0.9090909E-01  0.9135675E-16  0.2597403E-02
    1      -44.176186    -44.175873   1.000000   1.000000
    2      -22.014255    -22.014255   1.000000   1.000000
    3      -17.711602    -17.711599   1.000000   1.000000
    4       -6.783358     -6.783358   1.000000   1.000000
    5       -6.224747     -6.224745   1.000000   1.000000
    6       -5.714178     -5.714180   1.000000   1.000000
    7       -4.219338     -4.219336   1.000000   1.000000
    8       -0.681555     -0.681556   1.000000   1.000000
    9       -0.090300     -0.090300   1.000000   1.000000
   10        4.983371      4.983366   0.000000   0.000000
   11        5.792417      5.792417   0.000000   0.000000
   12        7.117985      7.117597   0.000000   0.000000
   13        9.998923      9.998065   0.000000   0.000000
   14       10.821673     10.821646   0.000000   0.000000
 
  0.4000000E+00  0.9090909E-01  0.9979663E-16  0.2597403E-02
    1      -44.175602    -44.175289   1.000000   1.000000
    2      -21.983924    -21.983922   1.000000   1.000000
    3      -17.695962    -17.695959   1.000000   1.000000
    4       -6.723860     -6.723859   1.000000   1.000000
    5       -6.383322     -6.383320   1.000000   1.000000
    6       -5.746201     -5.746203   1.000000   1.000000
    7       -4.282260     -4.282259   1.000000   1.000000
    8       -0.963184     -0.963188   1.000000   1.000000
    9       -0.212219     -0.212219   1.000000   1.000000
   10        4.662383      4.662378   0.000000   0.000000
   11        5.843447      5.843447   0.000000   0.000000
   12        7.874893      7.874873   0.000000   0.000000
   13       10.212046     10.210598   0.000000   0.000000
   14       10.812732     10.811424   0.000000   0.000000
 
  0.5000000E+00  0.9090909E-01  0.1168149E-15  0.2597403E-02
    1      -44.175238    -44.174925   1.000000   1.000000
    2      -21.965269    -21.965267   1.000000   1.000000
    3      -17.684878    -17.684875   1.000000   1.000000
    4       -6.781346     -6.781345   1.000000   1.000000
    5       -6.386792     -6.386791   1.000000   1.000000
    6       -5.758959     -5.758961   1.000000   1.000000
    7       -4.310024     -4.310022   1.000000   1.000000
    8       -1.144206     -1.144211   1.000000   1.000000
    9       -0.280718     -0.280718   1.000000   1.000000
   10        4.464973      4.464968   0.000000   0.000000
   11        5.862146      5.862145   0.000000   0.000000
   12        8.391014      8.391008   0.000000   0.000000
   13       10.175284     10.175199   0.000000   0.000000
   14       10.827922     10.827161   0.000000   0.000000
 
 -0.4000000E+00  0.9090909E-01 -0.1329294E-15  0.2597403E-02
    1      -44.175226    -44.174913   1.000000   1.000000
    2      -21.965781    -21.965779   1.000000   1.000000
    3      -17.682566    -17.682563   1.000000   1.000000
    4       -6.820307     -6.820306   1.000000   1.000000
    5       -6.366431     -6.366430   1.000000   1.000000
    6       -5.752313     -5.752315   1.000000   1.000000
    7       -4.275287     -4.275285   1.000000   1.000000
    8       -1.169488     -1.169493   1.000000   1.000000
    9       -0.278485     -0.278485   1.000000   1.000000
   10        4.462738      4.462733   0.000000   0.000000
   11        5.847452      5.847452   0.000000   0.000000
   12        8.385459      8.385398   0.000000   0.000000
   13       10.240164     10.240022   0.000000   0.000000
   14       10.794628     10.794570   0.000000   0.000000
 
 -0.3000000E+00  0.9090909E-01 -0.9275946E-16  0.2597403E-02
    1      -44.175563    -44.175250   1.000000   1.000000
    2      -21.985074    -21.985072   1.000000   1.000000
    3      -17.689922    -17.689919   1.000000   1.000000
    4       -6.829089     -6.829088   1.000000   1.000000
    5       -6.324766     -6.324764   1.000000   1.000000
    6       -5.728083     -5.728085   1.000000   1.000000
    7       -4.196158     -4.196156   1.000000   1.000000
    8       -1.021900     -1.021905   1.000000   1.000000
    9       -0.212864     -0.212863   1.000000   1.000000
   10        4.650877      4.650874   0.000000   0.000000
   11        5.803279      5.803278   0.000000   0.000000
   12        7.851078      7.850964   0.000000   0.000000
   13       10.550714     10.549913   0.000000   0.000000
   14       10.625529     10.623608   0.000000   0.000000
 
 -0.2000000E+00  0.9090909E-01 -0.4252966E-16  0.2597403E-02
    1      -44.176165    -44.175852   1.000000   1.000000
    2      -22.015737    -22.015738   1.000000   1.000000
    3      -17.704240    -17.704237   1.000000   1.000000
    4       -6.882051     -6.882051   1.000000   1.000000
    5       -6.179955     -6.179952   1.000000   1.000000
    6       -5.691822     -5.691824   1.000000   1.000000
    7       -4.120801     -4.120799   1.000000   1.000000
    8       -0.728803     -0.728807   1.000000   1.000000
    9       -0.115959     -0.115959   1.000000   1.000000
   10        4.959149      4.959147   0.000000   0.000000
   11        5.737752      5.737750   0.000000   0.000000
   12        7.085902      7.085139   0.000000   0.000000
   13       10.163464     10.162398   0.000000   0.000000
   14       11.035276     11.034663   0.000000   0.000000
 
 -0.1000000E+00  0.9090909E-01 -0.3588153E-16  0.2597403E-02
    1      -44.176730    -44.176418   1.000000   1.000000
    2      -22.045704    -22.045702   1.000000   1.000000
    3      -17.719855    -17.719852   1.000000   1.000000
    4       -6.957899     -6.957899   1.000000   1.000000
    5       -5.975036     -5.975034   1.000000   1.000000
    6       -5.660463     -5.660465   1.000000   1.000000
    7       -4.078801     -4.078800   1.000000   1.000000
    8       -0.379719     -0.379719   1.000000   1.000000
    9       -0.033190     -0.033189   1.000000   1.000000
   10        5.274317      5.274317   0.000000   0.000000
   11        5.668940      5.668938   0.000000   0.000000
   12        6.411472      6.411383   0.000000   0.000000
   13        9.605640      9.605577   0.000000   0.000000
   14       11.012984     11.008784   0.000000   0.000000
 
  0.2626240E-18  0.1818182E+00 -0.1524820E-16  0.2597403E-02
    1      -44.176250    -44.175937   1.000000   1.000000
    2      -22.026990    -22.026988   1.000000   1.000000
    3      -17.712595    -17.712592   1.000000   1.000000
    4       -6.902219     -6.902219   1.000000   1.000000
    5       -5.943220     -5.943219   1.000000   1.000000
    6       -5.805146     -5.805147   1.000000   1.000000
    7       -4.103242     -4.103241   1.000000   1.000000
    8       -0.298769     -0.298770   1.000000   1.000000
    9       -0.258327     -0.258325   1.000000   1.000000
   10        5.250447      5.250448   0.000000   0.000000
   11        5.728997      5.728998   0.000000   0.000000
   12        6.491614      6.491484   0.000000   0.000000
   13        9.716622      9.716394   0.000000   0.000000
   14       10.893875     10.892841   0.000000   0.000000
 
  0.1000000E+00  0.1818182E+00  0.1665805E-16  0.2597403E-02
    1      -44.176451    -44.176139   1.000000   1.000000
    2      -22.034865    -22.034863   1.000000   1.000000
    3      -17.721229    -17.721226   1.000000   1.000000
    4       -6.890361     -6.890361   1.000000   1.000000
    5       -5.860195     -5.860197   1.000000   1.000000
    6       -5.831399     -5.831396   1.000000   1.000000
    7       -4.143876     -4.143875   1.000000   1.000000
    8       -0.356468     -0.356465   1.000000   1.000000
    9       -0.024721     -0.024721   1.000000   1.000000
   10        5.326289      5.326288   0.000000   0.000000
   11        5.759970      5.759971   0.000000   0.000000
   12        6.353345      6.353241   0.000000   0.000000
   13        9.484180      9.484100   0.000000   0.000000
   14       10.716242     10.714141   0.000000   0.000000
 
  0.2000000E+00  0.1818182E+00  0.2956402E-17  0.2597403E-02
    1      -44.176330    -44.176017   1.000000   1.000000
    2      -22.025606    -22.025606   1.000000   1.000000
    3      -17.721381    -17.721378   1.000000   1.000000
    4       -6.823238     -6.823238   1.000000   1.000000
    5       -5.950942     -5.950943   1.000000   1.000000
    6       -5.829046     -5.829045   1.000000   1.000000
    7       -4.217608     -4.217606   1.000000   1.000000
    8       -0.511306     -0.511304   1.000000   1.000000
    9        0.058474      0.058475   1.000000   1.000000
   10        5.364320      5.364317   0.000000   0.000000
   11        5.587547      5.587546   0.000000   0.000000
   12        6.640766      6.640599   0.000000   0.000000
   13        9.555722      9.555688   0.000000   0.000000
   14       10.692423     10.691716   0.000000   0.000000
 
  0.3000000E+00  0.1818182E+00  0.5962000E-16  0.2597403E-02
    1      -44.175911    -44.175598   1.000000   1.000000
    2      -22.002527    -22.002527   1.000000   1.000000
    3      -17.713018    -17.713016   1.000000   1.000000
    4       -6.718097     -6.718097   1.000000   1.000000
    5       -6.108212     -6.108210   1.000000   1.000000
    6       -5.868558     -5.868559   1.000000   1.000000
    7       -4.308501     -4.308500   1.000000   1.000000
    8       -0.699222     -0.699221   1.000000   1.000000
    9       -0.039703     -0.039703   1.000000   1.000000
   10        5.154974      5.154970   0.000000   0.000000
   11        5.558515      5.558514   0.000000   0.000000
   12        7.199037      7.198698   0.000000   0.000000
   13        9.850468      9.850318   0.000000   0.000000
   14       10.820930     10.821559   0.000000   0.000000
 
  0.4000000E+00  0.1818182E+00  0.7070957E-16  0.2597403E-02
    1      -44.175386    -44.175074   1.000000   1.000000
    2      -21.974319    -21.974317   1.000000   1.000000
    3      -17.699384    -17.699382   1.000000   1.000000
    4       -6.629897     -6.629897   1.000000   1.000000
    5       -6.270728     -6.270726   1.000000   1.000000
    6       -5.903266     -5.903268   1.000000   1.000000
    7       -4.396697     -4.396696   1.000000   1.000000
    8       -0.870831     -0.870832   1.000000   1.000000
    9       -0.239002     -0.239002   1.000000   1.000000
   10        4.809586      4.809580   0.000000   0.000000
   11        5.606033      5.606032   0.000000   0.000000
   12        7.976457      7.976421   0.000000   0.000000
   13       10.076116     10.074951   0.000000   0.000000
   14       10.966958     10.962092   0.000000   0.000000
 
  0.5000000E+00  0.1818182E+00  0.1399600E-15  0.2597403E-02
    1      -44.174931    -44.174619   1.000000   1.000000
    2      -21.951768    -21.951765   1.000000   1.000000
    3      -17.685525    -17.685522   1.000000   1.000000
    4       -6.651655     -6.651654   1.000000   1.000000
    5       -6.333275     -6.333274   1.000000   1.000000
    6       -5.904971     -5.904972   1.000000   1.000000
    7       -4.445478     -4.445478   1.000000   1.000000
    8       -0.993347     -0.993350   1.000000   1.000000
    9       -0.427773     -0.427773   1.000000   1.000000
   10        4.541216      4.541210   0.000000   0.000000
   11        5.627390      5.627387   0.000000   0.000000
   12        8.756807      8.756805   0.000000   0.000000
   13       10.071417     10.071400   0.000000   0.000000
   14       10.973615     10.977145   0.000000   0.000000
 
 -0.4000000E+00  0.1818182E+00 -0.1302864E-15  0.2597403E-02
    1      -44.174719    -44.174407   1.000000   1.000000
    2      -21.943562    -21.943559   1.000000   1.000000
    3      -17.676758    -17.676755   1.000000   1.000000
    4       -6.738410     -6.738409   1.000000   1.000000
    5       -6.299901     -6.299901   1.000000   1.000000
    6       -5.906384     -5.906385   1.000000   1.000000
    7       -4.411505     -4.411504   1.000000   1.000000
    8       -1.055832     -1.055837   1.000000   1.000000
    9       -0.516251     -0.516252   1.000000   1.000000
   10        4.437910      4.437904   0.000000   0.000000
   11        5.634759      5.634755   0.000000   0.000000
   12        9.084290      9.084347   0.000000   0.000000
   13       10.044458     10.044452   0.000000   0.000000
   14       10.972321     10.964581   0.000000   0.000000
 
 -0.3000000E+00  0.1818182E+00 -0.1279657E-15  0.2597403E-02
    1      -44.174853    -44.174540   1.000000   1.000000
    2      -21.953159    -21.953157   1.000000   1.000000
    3      -17.676522    -17.676519   1.000000   1.000000
    4       -6.793300     -6.793299   1.000000   1.000000
    5       -6.246767     -6.246765   1.000000   1.000000
    6       -5.915012     -5.915014   1.000000   1.000000
    7       -4.301861     -4.301860   1.000000   1.000000
    8       -1.033985     -1.033991   1.000000   1.000000
    9       -0.482717     -0.482717   1.000000   1.000000
   10        4.521377      4.521373   0.000000   0.000000
   11        5.635740      5.635738   0.000000   0.000000
   12        8.607020      8.606983   0.000000   0.000000
   13       10.358949     10.358919   0.000000   0.000000
   14       10.889628     10.890067   0.000000   0.000000
 
 -0.2000000E+00  0.1818182E+00 -0.9356783E-16  0.2597403E-02
    1      -44.175281    -44.174969   1.000000   1.000000
    2      -21.976610    -21.976609   1.000000   1.000000
    3      -17.684961    -17.684958   1.000000   1.000000
    4       -6.827431     -6.827431   1.000000   1.000000
    5       -6.182951     -6.182949   1.000000   1.000000
    6       -5.885417     -5.885419   1.000000   1.000000
    7       -4.183229     -4.183228   1.000000   1.000000
    8       -0.884249     -0.884253   1.000000   1.000000
    9       -0.381575     -0.381574   1.000000   1.000000
   10        4.752259      4.752257   0.000000   0.000000
   11        5.633369      5.633367   0.000000   0.000000
   12        7.805833      7.805535   0.000000   0.000000
   13       10.576521     10.570746   0.000000   0.000000
   14       10.956636     10.956095   0.000000   0.000000
 
 -0.1000000E+00  0.1818182E+00 -0.1558167E-16  0.2597403E-02
    1      -44.175810    -44.175498   1.000000   1.000000
    2      -22.004806    -22.004806   1.000000   1.000000
    3      -17.698765    -17.698763   1.000000   1.000000
    4       -6.870159     -6.870159   1.000000   1.000000
    5       -6.075441     -6.075439   1.000000   1.000000
    6       -5.830875     -5.830877   1.000000   1.000000
    7       -4.112496     -4.112495   1.000000   1.000000
    8       -0.608251     -0.608254   1.000000   1.000000
    9       -0.291477     -0.291474   1.000000   1.000000
   10        5.040987      5.040986   0.000000   0.000000
   11        5.648549      5.648548   0.000000   0.000000
   12        7.036349      7.035798   0.000000   0.000000
   13       10.142588     10.142675   0.000000   0.000000
   14       11.170391     11.173313   0.000000   0.000000
 
 -0.3598935E-16  0.2727273E+00 -0.7313330E-16  0.2597403E-02
    1      -44.175187    -44.174874   1.000000   1.000000
    2      -21.978017    -21.978017   1.000000   1.000000
    3      -17.688742    -17.688740   1.000000   1.000000
    4       -6.798395     -6.798395   1.000000   1.000000
    5       -6.147226     -6.147226   1.000000   1.000000
    6       -5.895805     -5.895805   1.000000   1.000000
    7       -4.153167     -4.153166   1.000000   1.000000
    8       -0.698906     -0.698908   1.000000   1.000000
    9       -0.399099     -0.399097   1.000000   1.000000
   10        4.956576      4.956577   0.000000   0.000000
   11        5.752329      5.752331   0.000000   0.000000
   12        7.127504      7.127217   0.000000   0.000000
   13       10.288660     10.288691   0.000000   0.000000
   14       10.896067     10.890887   0.000000   0.000000
 
  0.1000000E+00  0.2727273E+00 -0.2602442E-16  0.2597403E-02
    1      -44.175471    -44.175159   1.000000   1.000000
    2      -21.990398    -21.990399   1.000000   1.000000
    3      -17.700753    -17.700751   1.000000   1.000000
    4       -6.775854     -6.775854   1.000000   1.000000
    5       -6.095466     -6.095467   1.000000   1.000000
    6       -5.878628     -5.878627   1.000000   1.000000
    7       -4.199729     -4.199728   1.000000   1.000000
    8       -0.671311     -0.671310   1.000000   1.000000
    9       -0.185258     -0.185258   1.000000   1.000000
   10        5.099654      5.099655   0.000000   0.000000
   11        5.751066      5.751067   0.000000   0.000000
   12        6.950006      6.949726   0.000000   0.000000
   13       10.041349     10.040878   0.000000   0.000000
   14       10.651084     10.650923   0.000000   0.000000
 
  0.2000000E+00  0.2727273E+00  0.4587568E-16  0.2597403E-02
    1      -44.175514    -44.175201   1.000000   1.000000
    2      -21.989582    -21.989583   1.000000   1.000000
    3      -17.707680    -17.707678   1.000000   1.000000
    4       -6.728124     -6.728124   1.000000   1.000000
    5       -6.077861     -6.077862   1.000000   1.000000
    6       -5.891418     -5.891415   1.000000   1.000000
    7       -4.297454     -4.297453   1.000000   1.000000
    8       -0.782976     -0.782974   1.000000   1.000000
    9        0.018898      0.018899   1.000000   1.000000
   10        5.205234      5.205233   0.000000   0.000000
   11        5.574752      5.574749   0.000000   0.000000
   12        7.088234      7.088036   0.000000   0.000000
   13        9.864475      9.864424   0.000000   0.000000
   14       10.634018     10.634506   0.000000   0.000000
 
  0.3000000E+00  0.2727273E+00  0.4437844E-16  0.2597403E-02
    1      -44.175313    -44.175001   1.000000   1.000000
    2      -21.975988    -21.975989   1.000000   1.000000
    3      -17.706963    -17.706960   1.000000   1.000000
    4       -6.668334     -6.668335   1.000000   1.000000
    5       -6.081848     -6.081849   1.000000   1.000000
    6       -5.947171     -5.947170   1.000000   1.000000
    7       -4.421337     -4.421336   1.000000   1.000000
    8       -0.929485     -0.929484   1.000000   1.000000
    9        0.066354      0.066354   1.000000   1.000000
   10        5.255564      5.255562   0.000000   0.000000
   11        5.324012      5.324006   0.000000   0.000000
   12        7.453617      7.453428   0.000000   0.000000
   13        9.838428      9.838544   0.000000   0.000000
   14       10.844744     10.835087   0.000000   0.000000
 
  0.4000000E+00  0.2727273E+00  0.1024007E-15  0.2597403E-02
    1      -44.174952    -44.174639   1.000000   1.000000
    2      -21.954682    -21.954682   1.000000   1.000000
    3      -17.698915    -17.698912   1.000000   1.000000
    4       -6.619336     -6.619338   1.000000   1.000000
    5       -6.119417     -6.119415   1.000000   1.000000
    6       -5.997891     -5.997892   1.000000   1.000000
    7       -4.545926     -4.545926   1.000000   1.000000
    8       -1.040381     -1.040380   1.000000   1.000000
    9       -0.070567     -0.070567   1.000000   1.000000
   10        4.955912      4.955905   0.000000   0.000000
   11        5.342848      5.342844   0.000000   0.000000
   12        8.081727      8.081514   0.000000   0.000000
   13        9.967119      9.966631   0.000000   0.000000
   14       11.151883     11.119055   0.000000   0.000000
 
  0.5000000E+00  0.2727273E+00  0.1167576E-16  0.2597403E-02
    1      -44.174523    -44.174210   1.000000   1.000000
    2      -21.933706    -21.933704   1.000000   1.000000
    3      -17.686449    -17.686446   1.000000   1.000000
    4       -6.570207     -6.570208   1.000000   1.000000
    5       -6.303371     -6.303369   1.000000   1.000000
    6       -5.921973     -5.921973   1.000000   1.000000
    7       -4.628502     -4.628502   1.000000   1.000000
    8       -1.070569     -1.070568   1.000000   1.000000
    9       -0.330407     -0.330408   1.000000   1.000000
   10        4.661694      4.661688   0.000000   0.000000
   11        5.368329      5.368324   0.000000   0.000000
   12        8.928724      8.928701   0.000000   0.000000
   13       10.088325     10.090871   0.000000   0.000000
   14       11.439252     11.403116   0.000000   0.000000
 
 -0.4000000E+00  0.2727273E+00 -0.1964352E-15  0.2597403E-02
    1      -44.174235    -44.173922   1.000000   1.000000
    2      -21.921156    -21.921153   1.000000   1.000000
    3      -17.674360    -17.674357   1.000000   1.000000
    4       -6.573052     -6.573051   1.000000   1.000000
    5       -6.404441     -6.404442   1.000000   1.000000
    6       -5.897527     -5.897526   1.000000   1.000000
    7       -4.606856     -4.606857   1.000000   1.000000
    8       -1.006680     -1.006679   1.000000   1.000000
    9       -0.616951     -0.616954   1.000000   1.000000
   10        4.480582      4.480576   0.000000   0.000000
   11        5.401821      5.401815   0.000000   0.000000
   12        9.772778      9.772687   0.000000   0.000000
   13        9.889103      9.889083   0.000000   0.000000
   14       11.409140     11.316771   0.000000   0.000000
 
 -0.3000000E+00  0.2727273E+00 -0.1573977E-15  0.2597403E-02
    1      -44.174166    -44.173853   1.000000   1.000000
    2      -21.921944    -21.921941   1.000000   1.000000
    3      -17.667193    -17.667190   1.000000   1.000000
    4       -6.701453     -6.701452   1.000000   1.000000
    5       -6.283173     -6.283174   1.000000   1.000000
    6       -5.971443     -5.971442   1.000000   1.000000
    7       -4.471007     -4.471008   1.000000   1.000000
    8       -0.897276     -0.897279   1.000000   1.000000
    9       -0.808306     -0.808306   1.000000   1.000000
   10        4.454219      4.454214   0.000000   0.000000
   11        5.456961      5.456956   0.000000   0.000000
   12        9.240169      9.240154   0.000000   0.000000
   13       10.368319     10.370083   0.000000   0.000000
   14       11.111339     11.050083   0.000000   0.000000
 