       N       E                     dE             d eps       ncg     rms          rms(c)
DAV:   1     0.396756702027E+03    0.39676E+03   -0.25823E+04 10304   0.136E+03
DAV:   2    -0.391849393477E+01   -0.40068E+03   -0.36929E+03 11688   0.325E+02
DAV:   3    -0.558233407530E+02   -0.51905E+02   -0.51243E+02 14770   0.904E+01
DAV:   4    -0.633399486585E+02   -0.75166E+01   -0.74489E+01 18520   0.339E+01
DAV:   5    -0.641385900000E+02   -0.79864E+00   -0.79833E+00 14936   0.783E+00    0.207E+01
DAV:   6    -0.654710100389E+02   -0.13324E+01   -0.28263E+00 13750   0.645E+00    0.110E+01
DAV:   7    -0.667468565139E+02   -0.12758E+01   -0.71843E-01 12728   0.410E+00    0.573E+00
DAV:   8    -0.669897024454E+02   -0.24285E+00   -0.63708E-01 13330   0.300E+00    0.123E+00
DAV:   9    -0.670188772094E+02   -0.29175E-01   -0.80887E-02 15560   0.112E+00    0.478E-01
DAV:  10    -0.670225404947E+02   -0.36633E-02   -0.65430E-03 13236   0.383E-01    0.201E-01
DAV:  11    -0.670239378947E+02   -0.13974E-02   -0.18551E-03 12776   0.208E-01    0.937E-02
DAV:  12    -0.670242206350E+02   -0.28274E-03   -0.62971E-04 13010   0.104E-01    0.397E-02
DAV:  13    -0.670242658059E+02   -0.45171E-04   -0.91640E-05 11992   0.519E-02    0.205E-02
DAV:  14    -0.670242789076E+02   -0.13102E-04   -0.28703E-05 10268   0.281E-02    0.587E-03
DAV:  15    -0.670242804801E+02   -0.15725E-05   -0.42585E-06  7132   0.131E-02
   1 F= -.67024280E+02 E0= -.67024280E+02  d E =0.000000E+00  mag=    -0.0003
