   16   16    1    2
  0.1469748E+02  0.4856230E-09  0.5474472E-09  0.1003366E-08  0.5000000E-15
  1.000000000000000E-004
  CAR 
 unknown system                          
     64     60     48
 
  0.0000000E+00  0.0000000E+00  0.0000000E+00  0.5102041E-02
    1      -40.968817    -40.967358   1.000000   1.000000
    2      -40.967188    -40.965727   1.000000   1.000000
    3      -40.955347    -40.953885   1.000000   1.000000
    4      -40.955272    -40.953810   1.000000   1.000000
    5      -40.943179    -40.941741   1.000000   1.000000
    6      -40.941539    -40.940099   1.000000   1.000000
    7      -40.939695    -40.938257   1.000000   1.000000
    8      -40.939526    -40.938088   1.000000   1.000000
    9       -8.788708     -8.789190   1.000000   1.000000
   10       -8.473574     -8.474071   1.000000   1.000000
   11       -6.059310     -6.059854   1.000000   1.000000
   12       -5.653836     -5.654460   1.000000   1.000000
   13       -5.467336     -5.467935   1.000000   1.000000
   14       -5.338843     -5.339469   1.000000   1.000000
   15       -1.787414     -1.788003   1.000000   1.000000
   16       -1.514381     -1.515107   1.000000   1.000000
   17       -0.673062     -0.673521   1.000000   1.000000
   18        0.030185      0.029731   1.000000   1.000000
   19        0.132630      0.132380   1.000000   1.000000
   20        0.206933      0.206768   1.000000   1.000000
   21        0.928593      0.928511   1.000000   1.000000
   22        1.296335      1.296030   1.000000   1.000000
   23        1.477718      1.477641   1.000000   1.000000
   24        1.794156      1.793784   1.000000   1.000000
   25        2.301643      2.301436   1.000000   1.000000
   26        2.782674      2.782413   1.000000   1.000000
   27        2.991150      2.990799   1.000000   1.000000
   28        3.290007      3.289645   1.000000   1.000000
   29        3.698812      3.698689   1.000000   1.000000
   30        3.901330      3.900966   1.000000   1.000000
   31        4.026103      4.025640   1.000000   1.000000
   32        4.897799      4.897380   1.000000   1.000000
   33        6.019078      6.018771   0.000000   0.000000
   34        6.275133      6.274990   0.000000   0.000000
   35        6.749570      6.749500   0.000000   0.000000
   36        6.890809      6.890853   0.000000   0.000000
   37        7.327925      7.327976   0.000000   0.000000
   38        8.057008      8.056997   0.000000   0.000000
   39        8.089203      8.089739   0.000000   0.000000
   40        8.273276      8.273864   0.000000   0.000000
   41        8.986842      8.987621   0.000000   0.000000
   42        9.027177      9.027302   0.000000   0.000000
   43        9.528040      9.528682   0.000000   0.000000
   44        9.766757      9.768227   0.000000   0.000000
   45        9.988196      9.986943   0.000000   0.000000
   46       10.068330     10.068867   0.000000   0.000000
   47       10.420455     10.541743   0.000000   0.000000
   48       10.680796     10.666255   0.000000   0.000000
 
  0.1428571E+00  0.0000000E+00  0.0000000E+00  0.1020408E-01
    1      -40.968483    -40.967024   1.000000   1.000000
    2      -40.967021    -40.965560   1.000000   1.000000
    3      -40.955606    -40.954144   1.000000   1.000000
    4      -40.955567    -40.954105   1.000000   1.000000
    5      -40.943028    -40.941590   1.000000   1.000000
    6      -40.941411    -40.939971   1.000000   1.000000
    7      -40.939869    -40.938431   1.000000   1.000000
    8      -40.939620    -40.938181   1.000000   1.000000
    9       -8.708520     -8.709007   1.000000   1.000000
   10       -8.397975     -8.398477   1.000000   1.000000
   11       -6.388024     -6.388590   1.000000   1.000000
   12       -6.234214     -6.234805   1.000000   1.000000
   13       -5.061414     -5.062021   1.000000   1.000000
   14       -4.858934     -4.859543   1.000000   1.000000
   15       -2.167987     -2.168609   1.000000   1.000000
   16       -1.623325     -1.623994   1.000000   1.000000
   17       -0.588535     -0.588963   1.000000   1.000000
   18        0.119083      0.118934   1.000000   1.000000
   19        0.202512      0.202259   1.000000   1.000000
   20        0.331923      0.331439   1.000000   1.000000
   21        0.737562      0.737438   1.000000   1.000000
   22        1.411626      1.411345   1.000000   1.000000
   23        1.530306      1.530062   1.000000   1.000000
   24        1.665142      1.664942   1.000000   1.000000
   25        2.549591      2.549340   1.000000   1.000000
   26        2.896211      2.895878   1.000000   1.000000
   27        2.906375      2.906096   1.000000   1.000000
   28        3.242826      3.242484   1.000000   1.000000
   29        3.465622      3.465402   1.000000   1.000000
   30        3.655448      3.655352   1.000000   1.000000
   31        3.806641      3.806129   1.000000   1.000000
   32        4.942677      4.942253   1.000000   1.000000
   33        6.374793      6.374461   0.000000  -0.000000
   34        6.724823      6.724703   0.000000   0.000000
   35        6.856650      6.856532   0.000000   0.000000
   36        6.884428      6.884478   0.000000   0.000000
   37        7.620726      7.620725   0.000000   0.000000
   38        7.885932      7.886019   0.000000   0.000000
   39        7.891598      7.891631   0.000000   0.000000
   40        8.730132      8.730664   0.000000   0.000000
   41        8.992048      8.992433   0.000000   0.000000
   42        9.302205      9.302558   0.000000   0.000000
   43        9.452011      9.452104   0.000000   0.000000
   44        9.716056      9.716032   0.000000   0.000000
   45        9.821776      9.822141   0.000000   0.000000
   46       10.084334     10.083164   0.000000   0.000000
   47       10.590901     10.592902   0.000000   0.000000
   48       11.078497     11.019458   0.000000   0.000000
 
  0.2857143E+00  0.0000000E+00  0.0000000E+00  0.1020408E-01
    1      -40.967622    -40.966162   1.000000   1.000000
    2      -40.966605    -40.965144   1.000000   1.000000
    3      -40.956251    -40.954791   1.000000   1.000000
    4      -40.956247    -40.954786   1.000000   1.000000
    5      -40.942527    -40.941089   1.000000   1.000000
    6      -40.941083    -40.939643   1.000000   1.000000
    7      -40.940303    -40.938865   1.000000   1.000000
    8      -40.939889    -40.938449   1.000000   1.000000
    9       -8.471294     -8.471791   1.000000   1.000000
   10       -8.175811     -8.176324   1.000000   1.000000
   11       -6.979807     -6.980369   1.000000   1.000000
   12       -6.828885     -6.829454   1.000000   1.000000
   13       -4.563611     -4.564197   1.000000   1.000000
   14       -4.190737     -4.191347   1.000000   1.000000
   15       -2.775024     -2.775637   1.000000   1.000000
   16       -2.172420     -2.173045   1.000000   1.000000
   17       -0.192769     -0.193165   1.000000   1.000000
   18        0.042816      0.042666   1.000000   1.000000
   19        0.403315      0.403023   1.000000   1.000000
   20        0.624769      0.624598   1.000000   1.000000
   21        0.804063      0.803594   1.000000   1.000000
   22        0.944418      0.944171   1.000000   1.000000
   23        1.597168      1.596903   1.000000   1.000000
   24        1.719208      1.718882   1.000000   1.000000
   25        2.264378      2.264257   1.000000   1.000000
   26        2.697620      2.697501   1.000000   1.000000
   27        2.994062      2.993834   1.000000   1.000000
   28        3.191906      3.191571   1.000000   1.000000
   29        3.511297      3.510930   1.000000   1.000000
   30        3.580651      3.580233   1.000000   1.000000
   31        3.755643      3.755412   1.000000   1.000000
   32        4.963682      4.963243   1.000000   1.000000
   33        6.713945      6.713882   0.000000   0.000000
   34        6.838313      6.838345   0.000000   0.000000
   35        7.008766      7.008486   0.000000   0.000000
   36        7.602943      7.603010   0.000000   0.000000
   37        7.711280      7.710995   0.000000   0.000000
   38        8.286024      8.285843   0.000000   0.000000
   39        8.336362      8.336311   0.000000   0.000000
   40        8.761503      8.761906   0.000000   0.000000
   41        9.130239      9.130387   0.000000   0.000000
   42        9.202143      9.202180   0.000000   0.000000
   43        9.873926      9.874408   0.000000   0.000000
   44        9.954732      9.955322   0.000000   0.000000
   45       10.113456     10.113903   0.000000   0.000000
   46       10.529701     10.530230   0.000000   0.000000
   47       10.777753     10.782867   0.000000   0.000000
   48       10.895852     10.902088   0.000000   0.000000
 
  0.4285714E+00  0.0000000E+00  0.0000000E+00  0.1020408E-01
    1      -40.966726    -40.965265   1.000000   1.000000
    2      -40.966369    -40.964907   1.000000   1.000000
    3      -40.956845    -40.955385   1.000000   1.000000
    4      -40.956843    -40.955383   1.000000   1.000000
    5      -40.941770    -40.940332   1.000000   1.000000
    6      -40.940968    -40.939529   1.000000   1.000000
    7      -40.940689    -40.939249   1.000000   1.000000
    8      -40.940277    -40.938837   1.000000   1.000000
    9       -8.087717     -8.088232   1.000000   1.000000
   10       -7.821634     -7.822164   1.000000   1.000000
   11       -7.578204     -7.578740   1.000000   1.000000
   12       -7.361189     -7.361739   1.000000   1.000000
   13       -4.010359     -4.010939   1.000000   1.000000
   14       -3.518970     -3.519579   1.000000   1.000000
   15       -3.407978     -3.408571   1.000000   1.000000
   16       -2.839632     -2.840244   1.000000   1.000000
   17        0.120537      0.120353   1.000000   1.000000
   18        0.189274      0.188971   1.000000   1.000000
   19        0.594628      0.594329   1.000000   1.000000
   20        0.630184      0.629918   1.000000   1.000000
   21        0.720290      0.719981   1.000000   1.000000
   22        1.132085      1.131763   1.000000   1.000000
   23        1.249532      1.249125   1.000000   1.000000
   24        1.601958      1.601593   1.000000   1.000000
   25        1.991171      1.991148   1.000000   1.000000
   26        2.116410      2.116383   1.000000   1.000000
   27        3.023197      3.023009   1.000000   1.000000
   28        3.178877      3.178552   1.000000   1.000000
   29        3.610999      3.610717   1.000000   1.000000
   30        3.843856      3.843529   1.000000   1.000000
   31        4.305071      4.304576   1.000000   1.000000
   32        4.791057      4.790576   1.000000   1.000000
   33        6.892125      6.891945   0.000000   0.000000
   34        6.899926      6.899812   0.000000   0.000000
   35        7.265464      7.265384   0.000000   0.000000
   36        7.468233      7.468156   0.000000   0.000000
   37        8.032495      8.032646   0.000000   0.000000
   38        8.502464      8.502578   0.000000   0.000000
   39        8.791025      8.791298   0.000000   0.000000
   40        9.200989      9.200828   0.000000   0.000000
   41        9.231135      9.230984   0.000000   0.000000
   42        9.692982      9.693099   0.000000   0.000000
   43        9.828823      9.829108   0.000000   0.000000
   44       10.088267     10.087868   0.000000   0.000000
   45       10.378872     10.379089   0.000000   0.000000
   46       10.708256     10.709445   0.000000   0.000000
   47       11.302773     11.179202   0.000000   0.000000
   48       11.407328     11.391021   0.000000   0.000000
 
  0.0000000E+00  0.1428571E+00  0.2935446E-16  0.1020408E-01
    1      -40.968363    -40.966903   1.000000   1.000000
    2      -40.967041    -40.965580   1.000000   1.000000
    3      -40.955712    -40.954251   1.000000   1.000000
    4      -40.955665    -40.954204   1.000000   1.000000
    5      -40.943071    -40.941632   1.000000   1.000000
    6      -40.941753    -40.940313   1.000000   1.000000
    7      -40.939515    -40.938076   1.000000   1.000000
    8      -40.939418    -40.937979   1.000000   1.000000
    9       -8.750146     -8.750630   1.000000   1.000000
   10       -8.486747     -8.487246   1.000000   1.000000
   11       -5.995155     -5.995699   1.000000   1.000000
   12       -5.686913     -5.687530   1.000000   1.000000
   13       -5.509634     -5.510225   1.000000   1.000000
   14       -5.438198     -5.438822   1.000000   1.000000
   15       -1.718700     -1.719308   1.000000   1.000000
   16       -1.421639     -1.422374   1.000000   1.000000
   17       -0.663613     -0.664067   1.000000   1.000000
   18       -0.234796     -0.235210   1.000000   1.000000
   19        0.129495      0.129264   1.000000   1.000000
   20        0.373163      0.372992   1.000000   1.000000
   21        0.829220      0.829068   1.000000   1.000000
   22        1.281656      1.281412   1.000000   1.000000
   23        1.520298      1.520131   1.000000   1.000000
   24        1.771072      1.770759   1.000000   1.000000
   25        2.165056      2.164826   1.000000   1.000000
   26        2.894374      2.894051   1.000000   1.000000
   27        2.933622      2.933389   1.000000   1.000000
   28        3.477761      3.477413   1.000000   1.000000
   29        3.840069      3.839919   1.000000   1.000000
   30        3.916319      3.915975   1.000000   1.000000
   31        4.068725      4.068225   1.000000   1.000000
   32        4.721131      4.720729   1.000000   1.000000
   33        6.319091      6.318992   0.000000  -0.000000
   34        6.326320      6.326001   0.000000   0.000000
   35        6.833720      6.833554   0.000000   0.000000
   36        7.162628      7.162645   0.000000   0.000000
   37        7.210342      7.210362   0.000000   0.000000
   38        7.705736      7.705542   0.000000   0.000000
   39        8.174213      8.174759   0.000000   0.000000
   40        8.182995      8.183567   0.000000   0.000000
   41        9.289621      9.289956   0.000000   0.000000
   42        9.310307      9.310891   0.000000   0.000000
   43        9.406158      9.406241   0.000000   0.000000
   44        9.418265      9.418493   0.000000   0.000000
   45        9.849316      9.850474   0.000000   0.000000
   46       10.281163     10.281051   0.000000   0.000000
   47       10.335550     10.335100   0.000000   0.000000
   48       10.429233     10.430449   0.000000   0.000000
 
  0.1428571E+00  0.1428571E+00  0.2935446E-16  0.2040816E-01
    1      -40.968145    -40.966685   1.000000   1.000000
    2      -40.966838    -40.965377   1.000000   1.000000
    3      -40.956342    -40.954881   1.000000   1.000000
    4      -40.955425    -40.953963   1.000000   1.000000
    5      -40.942908    -40.941469   1.000000   1.000000
    6      -40.941680    -40.940241   1.000000   1.000000
    7      -40.939789    -40.938350   1.000000   1.000000
    8      -40.939469    -40.938030   1.000000   1.000000
    9       -8.670348     -8.670837   1.000000   1.000000
   10       -8.411923     -8.412424   1.000000   1.000000
   11       -6.346946     -6.347510   1.000000   1.000000
   12       -6.268582     -6.269175   1.000000   1.000000
   13       -5.115612     -5.116201   1.000000   1.000000
   14       -4.918386     -4.918997   1.000000   1.000000
   15       -2.094176     -2.094799   1.000000   1.000000
   16       -1.649845     -1.650513   1.000000   1.000000
   17       -0.522315     -0.522734   1.000000   1.000000
   18       -0.121995     -0.122212   1.000000   1.000000
   19        0.159362      0.158984   1.000000   1.000000
   20        0.563696      0.563414   1.000000   1.000000
   21        0.723285      0.723119   1.000000   1.000000
   22        1.323701      1.323396   1.000000   1.000000
   23        1.424226      1.424026   1.000000   1.000000
   24        1.735157      1.734931   1.000000   1.000000
   25        2.416431      2.416225   1.000000   1.000000
   26        2.811639      2.811350   1.000000   1.000000
   27        3.043293      3.043030   1.000000   1.000000
   28        3.469658      3.469281   1.000000   1.000000
   29        3.611330      3.611097   1.000000   1.000000
   30        3.786087      3.785668   1.000000   1.000000
   31        3.823492      3.823241   1.000000   1.000000
   32        4.943192      4.942747   1.000000   1.000000
   33        6.431298      6.431014   0.000000  -0.000000
   34        6.725226      6.725165   0.000000   0.000000
   35        6.802450      6.802236   0.000000   0.000000
   36        7.087632      7.087583   0.000000   0.000000
   37        7.370583      7.370627   0.000000   0.000000
   38        7.680327      7.680350   0.000000   0.000000
   39        8.222356      8.222748   0.000000   0.000000
   40        8.781194      8.781453   0.000000   0.000000
   41        8.900489      8.900907   0.000000   0.000000
   42        9.422872      9.423030   0.000000   0.000000
   43        9.551940      9.552275   0.000000   0.000000
   44        9.738079      9.738479   0.000000   0.000000
   45       10.034237     10.033905   0.000000   0.000000
   46       10.218595     10.216006   0.000000   0.000000
   47       10.471881     10.473093   0.000000   0.000000
   48       10.712864     10.706490   0.000000   0.000000
 
  0.2857143E+00  0.1428571E+00  0.2935446E-16  0.2040816E-01
    1      -40.967530    -40.966069   1.000000   1.000000
    2      -40.966426    -40.964964   1.000000   1.000000
    3      -40.956929    -40.955469   1.000000   1.000000
    4      -40.955724    -40.954263   1.000000   1.000000
    5      -40.942414    -40.940976   1.000000   1.000000
    6      -40.941443    -40.940004   1.000000   1.000000
    7      -40.940247    -40.938808   1.000000   1.000000
    8      -40.939827    -40.938387   1.000000   1.000000
    9       -8.434541     -8.435040   1.000000   1.000000
   10       -8.192542     -8.193056   1.000000   1.000000
   11       -6.938966     -6.939529   1.000000   1.000000
   12       -6.859622     -6.860191   1.000000   1.000000
   13       -4.587918     -4.588492   1.000000   1.000000
   14       -4.273037     -4.273645   1.000000   1.000000
   15       -2.717783     -2.718393   1.000000   1.000000
   16       -2.266444     -2.267064   1.000000   1.000000
   17       -0.281811     -0.281998   1.000000   1.000000
   18        0.024047      0.023717   1.000000   1.000000
   19        0.372229      0.371909   1.000000   1.000000
   20        0.670655      0.670401   1.000000   1.000000
   21        0.770754      0.770480   1.000000   1.000000
   22        0.963370      0.962989   1.000000   1.000000
   23        1.558411      1.558193   1.000000   1.000000
   24        1.782044      1.781706   1.000000   1.000000
   25        2.398677      2.398538   1.000000   1.000000
   26        2.743106      2.742964   1.000000   1.000000
   27        3.144487      3.144263   1.000000   1.000000
   28        3.292093      3.291666   1.000000   1.000000
   29        3.492127      3.491818   1.000000   1.000000
   30        3.608324      3.608002   1.000000   1.000000
   31        3.828897      3.828592   1.000000   1.000000
   32        5.051274      5.050789   1.000000   1.000000
   33        6.755572      6.755418   0.000000   0.000000
   34        6.822299      6.822222   0.000000   0.000000
   35        7.223987      7.223875   0.000000   0.000000
   36        7.434392      7.434236   0.000000   0.000000
   37        7.676606      7.676583   0.000000   0.000000
   38        8.018264      8.018316   0.000000   0.000000
   39        8.552562      8.552638   0.000000   0.000000
   40        8.990436      8.990470   0.000000   0.000000
   41        9.050316      9.050184   0.000000   0.000000
   42        9.385966      9.386334   0.000000   0.000000
   43        9.855951      9.856462   0.000000   0.000000
   44        9.991734      9.992087   0.000000   0.000000
   45       10.211339     10.211844   0.000000   0.000000
   46       10.316339     10.316592   0.000000   0.000000
   47       10.654434     10.653326   0.000000   0.000000
   48       11.075563     11.063124   0.000000   0.000000
 
  0.4285714E+00  0.1428571E+00  0.2935446E-16  0.2040816E-01
    1      -40.966778    -40.965317   1.000000   1.000000
    2      -40.966321    -40.964860   1.000000   1.000000
    3      -40.956983    -40.955523   1.000000   1.000000
    4      -40.956418    -40.954957   1.000000   1.000000
    5      -40.941670    -40.940232   1.000000   1.000000
    6      -40.941219    -40.939781   1.000000   1.000000
    7      -40.940672    -40.939233   1.000000   1.000000
    8      -40.940414    -40.938974   1.000000   1.000000
    9       -8.055317     -8.055827   1.000000   1.000000
   10       -7.850031     -7.850549   1.000000   1.000000
   11       -7.531069     -7.531604   1.000000   1.000000
   12       -7.378443     -7.378990   1.000000   1.000000
   13       -4.009256     -4.009830   1.000000   1.000000
   14       -3.631491     -3.632098   1.000000   1.000000
   15       -3.363969     -3.364554   1.000000   1.000000
   16       -2.944802     -2.945407   1.000000   1.000000
   17       -0.136453     -0.136611   1.000000   1.000000
   18        0.171366      0.171159   1.000000   1.000000
   19        0.415549      0.415299   1.000000   1.000000
   20        0.579873      0.579570   1.000000   1.000000
   21        0.806746      0.806379   1.000000   1.000000
   22        1.323140      1.322763   1.000000   1.000000
   23        1.388577      1.388168   1.000000   1.000000
   24        1.622808      1.622465   1.000000   1.000000
   25        2.272886      2.272807   1.000000   1.000000
   26        2.480452      2.480394   1.000000   1.000000
   27        2.980632      2.980434   1.000000   1.000000
   28        3.170960      3.170642   1.000000   1.000000
   29        3.543988      3.543708   1.000000   1.000000
   30        3.662994      3.662701   1.000000   1.000000
   31        4.390299      4.389810   1.000000   1.000000
   32        4.886726      4.886217   1.000000   1.000000
   33        6.982236      6.982052   0.000000   0.000000
   34        7.055821      7.055744   0.000000   0.000000
   35        7.570228      7.570196   0.000000   0.000000
   36        7.755772      7.755413   0.000000   0.000000
   37        8.068151      8.068245   0.000000   0.000000
   38        8.522571      8.522622   0.000000   0.000000
   39        8.821149      8.820975   0.000000   0.000000
   40        9.008715      9.008836   0.000000   0.000000
   41        9.150442      9.150341   0.000000   0.000000
   42        9.300565      9.300645   0.000000   0.000000
   43        9.691236      9.691258   0.000000   0.000000
   44        9.938224      9.938311   0.000000   0.000000
   45       10.260378     10.261246   0.000000   0.000000
   46       10.414903     10.415327   0.000000   0.000000
   47       10.854051     10.851985   0.000000   0.000000
   48       11.025306     11.003461   0.000000   0.000000
 
  0.0000000E+00  0.2857143E+00 -0.1346604E-17  0.1020408E-01
    1      -40.967299    -40.965839   1.000000   1.000000
    2      -40.966630    -40.965169   1.000000   1.000000
    3      -40.956719    -40.955259   1.000000   1.000000
    4      -40.956566    -40.955106   1.000000   1.000000
    5      -40.942533    -40.941094   1.000000   1.000000
    6      -40.942373    -40.940934   1.000000   1.000000
    7      -40.939384    -40.937945   1.000000   1.000000
    8      -40.939098    -40.937659   1.000000   1.000000
    9       -8.655533     -8.656017   1.000000   1.000000
   10       -8.514378     -8.514881   1.000000   1.000000
   11       -5.934053     -5.934614   1.000000   1.000000
   12       -5.789985     -5.790569   1.000000   1.000000
   13       -5.656865     -5.657458   1.000000   1.000000
   14       -5.461421     -5.462033   1.000000   1.000000
   15       -1.698053     -1.698687   1.000000   1.000000
   16       -1.221344     -1.222107   1.000000   1.000000
   17       -0.690972     -0.691401   1.000000   1.000000
   18       -0.502234     -0.502640   1.000000   1.000000
   19        0.188250      0.188051   1.000000   1.000000
   20        0.479069      0.479024   1.000000   1.000000
   21        0.811843      0.811548   1.000000   1.000000
   22        1.125088      1.124907   1.000000   1.000000
   23        1.694001      1.693678   1.000000   1.000000
   24        1.729078      1.728763   1.000000   1.000000
   25        1.913815      1.913617   1.000000   1.000000
   26        2.816486      2.816187   1.000000   1.000000
   27        3.333555      3.333351   1.000000   1.000000
   28        3.406601      3.406302   1.000000   1.000000
   29        3.906185      3.905876   1.000000   1.000000
   30        4.039430      4.038927   1.000000   1.000000
   31        4.235849      4.235582   1.000000   1.000000
   32        4.749320      4.748893   1.000000   1.000000
   33        6.372151      6.372143   0.000000   0.000000
   34        6.535863      6.535666   0.000000   0.000000
   35        6.949439      6.949311   0.000000   0.000000
   36        7.065177      7.064783   0.000000   0.000000
   37        7.501115      7.501143   0.000000   0.000000
   38        7.831656      7.831794   0.000000   0.000000
   39        8.304571      8.305173   0.000000   0.000000
   40        8.417423      8.417972   0.000000   0.000000
   41        9.136594      9.136726   0.000000   0.000000
   42        9.243677      9.243403   0.000000   0.000000
   43        9.478450      9.479082   0.000000   0.000000
   44        9.543709      9.543659   0.000000   0.000000
   45        9.835498      9.835912   0.000000   0.000000
   46       10.098685     10.098017   0.000000   0.000000
   47       10.573183     10.609023   0.000000   0.000000
   48       10.801553     10.818008   0.000000   0.000000
 
  0.1428571E+00  0.2857143E+00 -0.1346604E-17  0.2040816E-01
    1      -40.967358    -40.965897   1.000000   1.000000
    2      -40.966383    -40.964922   1.000000   1.000000
    3      -40.957219    -40.955759   1.000000   1.000000
    4      -40.955979    -40.954518   1.000000   1.000000
    5      -40.942463    -40.941024   1.000000   1.000000
    6      -40.942297    -40.940858   1.000000   1.000000
    7      -40.939656    -40.938217   1.000000   1.000000
    8      -40.939239    -40.937800   1.000000   1.000000
    9       -8.576913     -8.577403   1.000000   1.000000
   10       -8.440577     -8.441085   1.000000   1.000000
   11       -6.409265     -6.409843   1.000000   1.000000
   12       -6.210786     -6.211371   1.000000   1.000000
   13       -5.307928     -5.308490   1.000000   1.000000
   14       -4.925857     -4.926465   1.000000   1.000000
   15       -1.975294     -1.975919   1.000000   1.000000
   16       -1.774005     -1.774653   1.000000   1.000000
   17       -0.494381     -0.494763   1.000000   1.000000
   18       -0.219632     -0.219826   1.000000   1.000000
   19        0.087107      0.086656   1.000000   1.000000
   20        0.633274      0.633075   1.000000   1.000000
   21        0.958680      0.958438   1.000000   1.000000
   22        1.045973      1.045685   1.000000   1.000000
   23        1.282821      1.282629   1.000000   1.000000
   24        1.849210      1.848928   1.000000   1.000000
   25        2.363586      2.363352   1.000000   1.000000
   26        2.786207      2.785969   1.000000   1.000000
   27        3.381554      3.381325   1.000000   1.000000
   28        3.507171      3.506725   1.000000   1.000000
   29        3.654823      3.654398   1.000000   1.000000
   30        3.925085      3.924842   1.000000   1.000000
   31        4.223766      4.223462   1.000000   1.000000
   32        4.836860      4.836449   1.000000   1.000000
   33        6.630755      6.630468   0.000000   0.000000
   34        6.737846      6.737782   0.000000   0.000000
   35        6.933473      6.933261   0.000000   0.000000
   36        7.193633      7.193521   0.000000   0.000000
   37        7.326592      7.326562   0.000000   0.000000
   38        8.004285      8.004486   0.000000   0.000000
   39        8.316773      8.317225   0.000000   0.000000
   40        8.628091      8.628190   0.000000   0.000000
   41        8.986843      8.987464   0.000000   0.000000
   42        9.373871      9.374027   0.000000   0.000000
   43        9.495186      9.495426   0.000000   0.000000
   44        9.779982      9.780549   0.000000   0.000000
   45        9.874345      9.875015   0.000000   0.000000
   46       10.393180     10.392804   0.000000   0.000000
   47       10.578075     10.577082   0.000000   0.000000
   48       10.748354     10.748241   0.000000   0.000000
 
  0.2857143E+00  0.2857143E+00 -0.1346604E-17  0.2040816E-01
    1      -40.967205    -40.965744   1.000000   1.000000
    2      -40.966157    -40.964695   1.000000   1.000000
    3      -40.957263    -40.955804   1.000000   1.000000
    4      -40.955684    -40.954223   1.000000   1.000000
    5      -40.942156    -40.940718   1.000000   1.000000
    6      -40.942016    -40.940577   1.000000   1.000000
    7      -40.940267    -40.938828   1.000000   1.000000
    8      -40.939755    -40.938315   1.000000   1.000000
    9       -8.345524     -8.346026   1.000000   1.000000
   10       -8.224144     -8.224664   1.000000   1.000000
   11       -6.950126     -6.950699   1.000000   1.000000
   12       -6.837431     -6.837995   1.000000   1.000000
   13       -4.732832     -4.733382   1.000000   1.000000
   14       -4.321469     -4.322076   1.000000   1.000000
   15       -2.610966     -2.611562   1.000000   1.000000
   16       -2.480990     -2.481605   1.000000   1.000000
   17       -0.478423     -0.478536   1.000000   1.000000
   18       -0.028700     -0.029019   1.000000   1.000000
   19        0.388656      0.388387   1.000000   1.000000
   20        0.597999      0.597758   1.000000   1.000000
   21        0.721479      0.721049   1.000000   1.000000