 running on    8 total cores
 distrk:  each k-point on    8 cores,    1 groups
 distr:  one band on    1 cores,    8 groups
 using from now: INCAR     
 vasp.6.1.2 22Jul20 (build Mar 20 2021 11:25:07) complex                        
  
 POSCAR found type information on POSCAR LiP 
 POSCAR found :  2 types and      16 ions
 scaLAPACK will be used
 -----------------------------------------------------------------------------
|                                                                             |
|           W    W    AA    RRRRR   N    N  II  N    N   GGGG   !!!           |
|           W    W   A  A   R    R  NN   N  II  NN   N  G    G  !!!           |
|           W    W  A    A  R    R  N N  N  II  N N  N  G       !!!           |
|           W WW W  AAAAAA  RRRRR   N  N N  II  N  N N  G  GGG   !            |
|           WW  WW  A    A  R   R   N   NN  II  N   NN  G    G                |
|           W    W  A    A  R    R  N    N  II  N    N   GGGG   !!!           |
|                                                                             |
|     The value NCORE = 6 specified in the INCAR file was overwritten,        |
|     because it was not compatible with the 8 processes available:           |
|     NCORE = 1                                                               |
|     was used instead, please check that this makes sense for your           |
|     machine.                                                                |
|                                                                             |
 -----------------------------------------------------------------------------

 -----------------------------------------------------------------------------
|                                                                             |
|           W    W    AA    RRRRR   N    N  II  N    N   GGGG   !!!           |
|           W    W   A  A   R    R  NN   N  II  NN   N  G    G  !!!           |
|           W    W  A    A  R    R  N N  N  II  N N  N  G       !!!           |
|           W WW W  AAAAAA  RRRRR   N  N N  II  N  N N  G  GGG   !            |
|           WW  WW  A    A  R   R   N   NN  II  N   NN  G    G                |
|           W    W  A    A  R    R  N    N  II  N    N   GGGG   !!!           |
|                                                                             |
|     For optimal performance we recommend to set                             |
|       NCORE = 4 - approx SQRT(number of cores).                             |
|     NCORE specifies how many cores store one orbital (NPAR=cpu/NCORE).      |
|     This setting can greatly improve the performance of VASP for DFT.       |
|     The default, NCORE=1 might be grossly inefficient on modern             |
|     multi-core architectures or massively parallel machines. Do your        |
|     own testing!!!!                                                         |
|     Unfortunately you need to use the default for GW and RPA                |
|     calculations (for HF NCORE is supported but not extensively tested      |
|     yet).                                                                   |
|                                                                             |
 -----------------------------------------------------------------------------

 LDA part: xc-table for Pade appr. of Perdew
 generate k-points for:    7    7    4
 POSCAR, INCAR and KPOINTS ok, starting setup
 FFT: planning ...
 WAVECAR not read
 entering main loop
       N       E                     dE             d eps       ncg     rms          rms(c)
DAV:   1     0.399805883435E+03    0.39981E+03   -0.25925E+04 11520   0.132E+03
DAV:   2    -0.437527787838E+01   -0.40418E+03   -0.36960E+03 12784   0.320E+02
DAV:   3    -0.558765354390E+02   -0.51501E+02   -0.50842E+02 16520   0.883E+01
DAV:   4    -0.633517577826E+02   -0.74752E+01   -0.73993E+01 19976   0.324E+01
DAV:   5    -0.639722725524E+02   -0.62051E+00   -0.62024E+00 16008   0.727E+00    0.217E+01
RMM:   6    -0.652987614854E+02   -0.13265E+01   -0.22406E+00 13974   0.586E+00    0.119E+01
RMM:   7    -0.665831256831E+02   -0.12844E+01   -0.54857E-01 16567   0.361E+00    0.632E+00
RMM:   8    -0.667990864196E+02   -0.21596E+00   -0.87401E-01 18364   0.334E+00    0.115E+00
RMM:   9    -0.668384429845E+02   -0.39357E-01   -0.13904E-01 19561   0.170E+00    0.531E-01
RMM:  10    -0.668490540993E+02   -0.10611E-01   -0.72806E-02 20755   0.934E-01    0.273E-01
RMM:  11    -0.668520865308E+02   -0.30324E-02   -0.26687E-02 20786   0.596E-01    0.175E-01
RMM:  12    -0.668534184514E+02   -0.13319E-02   -0.12733E-02 21634   0.402E-01    0.113E-01
RMM:  13    -0.668540574798E+02   -0.63903E-03   -0.56499E-03 21604   0.272E-01    0.478E-02
RMM:  14    -0.668544033625E+02   -0.34588E-03   -0.29574E-03 21452   0.182E-01    0.148E-02
RMM:  15    -0.668545716155E+02   -0.16825E-03   -0.14928E-03 20043   0.126E-01    0.155E-02
RMM:  16    -0.668546579498E+02   -0.86334E-04   -0.75573E-04 19894   0.903E-02    0.207E-02
RMM:  17    -0.668547085135E+02   -0.50564E-04   -0.40802E-04 19147   0.678E-02    0.338E-02
RMM:  18    -0.668547357404E+02   -0.27227E-04   -0.20656E-04 16705   0.533E-02    0.421E-02
RMM:  19    -0.668547700401E+02   -0.34300E-04   -0.18626E-04 18883   0.488E-02    0.674E-02
RMM:  20    -0.668547781694E+02   -0.81292E-05   -0.66292E-05 14046   0.391E-02
   1 F= -.66854778E+02 E0= -.66854778E+02  d E =0.000000E+00  mag=    -0.0003
