 running on   12 total cores
 distrk:  each k-point on   12 cores,    1 groups
 distr:  one band on    6 cores,    2 groups
 using from now: INCAR     
 vasp.6.1.2 22Jul20 (build Mar 20 2021 11:25:07) complex                        
  
 POSCAR found type information on POSCAR Li
 POSCAR found :  1 types and       1 ions
 scaLAPACK will be used
 -----------------------------------------------------------------------------
|                                                                             |
|               ----> ADVICE to this user running VASP <----                  |
|                                                                             |
|     You have a (more or less) 'small supercell' and for smaller cells       |
|     it is recommended to use the reciprocal-space projection scheme!        |
|     The real-space optimization is not efficient for small cells and it     |
|     is also less accurate ...                                               |
|     Therefore, set LREAL=.FALSE. in the INCAR file.                         |
|                                                                             |
 -----------------------------------------------------------------------------

 LDA part: xc-table for Pade appr. of Perdew
 generate k-points for:   12   13   13
 POSCAR, INCAR and KPOINTS ok, starting setup
 FFT: planning ...
 WAVECAR not read
 entering main loop
       N       E                     dE             d eps       ncg     rms          rms(c)
DAV:   1     0.637993070730E+00    0.63799E+00   -0.70133E+02 13344   0.341E+02
DAV:   2    -0.151221164912E+01   -0.21502E+01   -0.21124E+01 18822   0.494E+01
DAV:   3    -0.159006708592E+01   -0.77855E-01   -0.77666E-01 16404   0.643E+00
DAV:   4    -0.159200144410E+01   -0.19344E-02   -0.19336E-02 19680   0.861E-01
DAV:   5    -0.159201285841E+01   -0.11414E-04   -0.11416E-04 17412   0.540E-02    0.545E+00
RMM:   6    -0.181392937006E+01   -0.22192E+00   -0.68235E-02 15350   0.260E+00    0.260E+00
RMM:   7    -0.189182656945E+01   -0.77897E-01   -0.24033E-02 14652   0.165E+00    0.180E-01
RMM:   8    -0.189343535617E+01   -0.16088E-02   -0.92319E-03 16430   0.893E-01    0.923E-02
RMM:   9    -0.189360527311E+01   -0.16992E-03   -0.23567E-03 19304   0.453E-01    0.333E-02
RMM:  10    -0.189403050328E+01   -0.42523E-03   -0.14711E-03 18094   0.366E-01    0.270E-02
RMM:  11    -0.189408206133E+01   -0.51558E-04   -0.29273E-04 20586   0.146E-01    0.205E-02
RMM:  12    -0.189409259093E+01   -0.10530E-04   -0.14718E-04 19518   0.106E-01    0.698E-03
RMM:  13    -0.189410644111E+01   -0.13850E-04   -0.38227E-05 17661   0.626E-02    0.478E-03
RMM:  14    -0.189410881362E+01   -0.23725E-05   -0.16238E-05 13346   0.367E-02
   1 F= -.18941088E+01 E0= -.18941088E+01  d E =0.000000E+00  mag=    -0.0001
 -----------------------------------------------------------------------------
|                                                                             |
|           W    W    AA    RRRRR   N    N  II  N    N   GGGG   !!!           |
|           W    W   A  A   R    R  NN   N  II  NN   N  G    G  !!!           |
|           W    W  A    A  R    R  N N  N  II  N N  N  G       !!!           |
|           W WW W  AAAAAA  RRRRR   N  N N  II  N  N N  G  GGG   !            |
|           WW  WW  A    A  R   R   N   NN  II  N   NN  G    G                |
|           W    W  A    A  R    R  N    N  II  N    N   GGGG   !!!           |
|                                                                             |
|     Tetrahedron method does not include variations of the Fermi             |
|     occupations, so forces and stress will be inaccurate. We suggest        |
|     using a different smearing scheme ISMEAR = 1 or 2 for metals in         |
|     relaxations.                                                            |
|                                                                             |
 -----------------------------------------------------------------------------

