 running on    8 total cores
 distrk:  each k-point on    8 cores,    1 groups
 distr:  one band on    1 cores,    8 groups
 using from now: INCAR     
 vasp.6.1.2 22Jul20 (build Mar 20 2021 11:25:07) complex                        
  
 POSCAR found type information on POSCAR LiN 
 POSCAR found :  2 types and       4 ions
 scaLAPACK will be used
 -----------------------------------------------------------------------------
|                                                                             |
|           W    W    AA    RRRRR   N    N  II  N    N   GGGG   !!!           |
|           W    W   A  A   R    R  NN   N  II  NN   N  G    G  !!!           |
|           W    W  A    A  R    R  N N  N  II  N N  N  G       !!!           |
|           W WW W  AAAAAA  RRRRR   N  N N  II  N  N N  G  GGG   !            |
|           WW  WW  A    A  R   R   N   NN  II  N   NN  G    G                |
|           W    W  A    A  R    R  N    N  II  N    N   GGGG   !!!           |
|                                                                             |
|     The value NCORE = 6 specified in the INCAR file was overwritten,        |
|     because it was not compatible with the 8 processes available:           |
|     NCORE = 1                                                               |
|     was used instead, please check that this makes sense for your           |
|     machine.                                                                |
|                                                                             |
 -----------------------------------------------------------------------------

 -----------------------------------------------------------------------------
|                                                                             |
|           W    W    AA    RRRRR   N    N  II  N    N   GGGG   !!!           |
|           W    W   A  A   R    R  NN   N  II  NN   N  G    G  !!!           |
|           W    W  A    A  R    R  N N  N  II  N N  N  G       !!!           |
|           W WW W  AAAAAA  RRRRR   N  N N  II  N  N N  G  GGG   !            |
|           WW  WW  A    A  R   R   N   NN  II  N   NN  G    G                |
|           W    W  A    A  R    R  N    N  II  N    N   GGGG   !!!           |
|                                                                             |
|     For optimal performance we recommend to set                             |
|       NCORE = 4 - approx SQRT(number of cores).                             |
|     NCORE specifies how many cores store one orbital (NPAR=cpu/NCORE).      |
|     This setting can greatly improve the performance of VASP for DFT.       |
|     The default, NCORE=1 might be grossly inefficient on modern             |
|     multi-core architectures or massively parallel machines. Do your        |
|     own testing!!!!                                                         |
|     Unfortunately you need to use the default for GW and RPA                |
|     calculations (for HF NCORE is supported but not extensively tested      |
|     yet).                                                                   |
|                                                                             |
 -----------------------------------------------------------------------------

 -----------------------------------------------------------------------------
|                                                                             |
|               ----> ADVICE to this user running VASP <----                  |
|                                                                             |
|     You have a (more or less) 'small supercell' and for smaller cells       |
|     it is recommended to use the reciprocal-space projection scheme!        |
|     The real-space optimization is not efficient for small cells and it     |
|     is also less accurate ...                                               |
|     Therefore, set LREAL=.FALSE. in the INCAR file.                         |
|                                                                             |
 -----------------------------------------------------------------------------

 LDA part: xc-table for Pade appr. of Perdew
 generate k-points for:   11   11    7
 POSCAR, INCAR and KPOINTS ok, starting setup
 FFT: planning ...
 WAVECAR not read
 entering main loop
       N       E                     dE             d eps       ncg     rms          rms(c)
DAV:   1     0.790147369421E+02    0.79015E+02   -0.84414E+03 14992   0.104E+03
DAV:   2    -0.238956177759E+02   -0.10291E+03   -0.99348E+02 20360   0.248E+02
DAV:   3    -0.286670166343E+02   -0.47714E+01   -0.47544E+01 21624   0.553E+01
DAV:   4    -0.288043612247E+02   -0.13734E+00   -0.13729E+00 20896   0.826E+00
DAV:   5    -0.288059303975E+02   -0.15692E-02   -0.15691E-02 20424   0.821E-01    0.131E+01
RMM:   6    -0.275285560397E+02    0.12774E+01   -0.31727E+00 16495   0.111E+01    0.601E+00
RMM:   7    -0.274442332668E+02    0.84323E-01   -0.49084E-01 18727   0.589E+00    0.347E+00
RMM:   8    -0.274162005986E+02    0.28033E-01   -0.19887E-01 19845   0.333E+00    0.173E+00
RMM:   9    -0.274257187987E+02   -0.95182E-02   -0.42331E-02 21407   0.169E+00    0.645E-01
RMM:  10    -0.274267359120E+02   -0.10171E-02   -0.11796E-02 22828   0.811E-01    0.153E-01
RMM:  11    -0.274274276935E+02   -0.69178E-03   -0.27658E-03 23581   0.413E-01    0.805E-02
RMM:  12    -0.274277198531E+02   -0.29216E-03   -0.13418E-03 25026   0.246E-01    0.416E-02
RMM:  13    -0.274278113405E+02   -0.91487E-04   -0.47813E-04 24544   0.144E-01    0.137E-02
RMM:  14    -0.274278488761E+02   -0.37536E-04   -0.23864E-04 23728   0.969E-02    0.771E-03
RMM:  15    -0.274278633972E+02   -0.14521E-04   -0.10666E-04 21450   0.616E-02    0.435E-03
RMM:  16    -0.274278698076E+02   -0.64104E-05   -0.47166E-05 18771   0.425E-02
   1 F= -.27427870E+02 E0= -.27427870E+02  d E =0.000000E+00  mag=    -0.0000
