 running on   48 total cores
 distrk:  each k-point on   48 cores,    1 groups
 distr:  one band on    6 cores,    8 groups
 using from now: INCAR     
 vasp.6.1.2 22Jul20 (build Mar 31 2021 18:09:49) complex                        
  
 POSCAR found type information on POSCAR LiP O 
 POSCAR found :  3 types and     100 ions
 scaLAPACK will be used
 LDA part: xc-table for Pade appr. of Perdew
 generate k-points for:    6    3    2
 POSCAR, INCAR and KPOINTS ok, starting setup
 FFT: planning ...
 WAVECAR not read
 entering main loop
       N       E                     dE             d eps       ncg     rms          rms(c)
DAV:   1     0.450645355435E+04    0.45065E+04   -0.25652E+05 27520   0.151E+03
DAV:   2    -0.252949148343E+03   -0.47594E+04   -0.45105E+04 32528   0.387E+02
DAV:   3    -0.707097932928E+03   -0.45415E+03   -0.45072E+03 34456   0.129E+02
DAV:   4    -0.737850309314E+03   -0.30752E+02   -0.30609E+02 47608   0.267E+01
DAV:   5    -0.744232743480E+03   -0.63824E+01   -0.63788E+01 44424   0.733E+00    0.108E+02
DAV:   6    -0.565456566290E+03    0.17878E+03   -0.43641E+02 32952   0.393E+01    0.612E+01
DAV:   7    -0.589630826374E+03   -0.24174E+02   -0.65477E+01 33816   0.144E+01    0.206E+01
DAV:   8    -0.605495352655E+03   -0.15865E+02   -0.11866E+01 33392   0.682E+00    0.123E+01
DAV:   9    -0.625801304269E+03   -0.20306E+02   -0.97396E+00 33384   0.529E+00    0.780E+00
DAV:  10    -0.650305801502E+03   -0.24504E+02   -0.22473E+01 33808   0.683E+00    0.407E+00
DAV:  11    -0.660251620475E+03   -0.99458E+01   -0.11144E+01 34352   0.464E+00    0.286E+00
DAV:  12    -0.663152852938E+03   -0.29012E+01   -0.38701E+00 33288   0.297E+00    0.177E+00
DAV:  13    -0.663352943818E+03   -0.20009E+00   -0.61507E-01 31584   0.135E+00    0.974E-01
DAV:  14    -0.663367857058E+03   -0.14913E-01   -0.81399E-02 34552   0.617E-01    0.582E-01
DAV:  15    -0.663366706258E+03    0.11508E-02   -0.19492E-02 30960   0.321E-01    0.295E-01
DAV:  16    -0.663367148110E+03   -0.44185E-03   -0.48578E-03 35008   0.155E-01    0.106E-01
DAV:  17    -0.663367769791E+03   -0.62168E-03   -0.16046E-03 36616   0.841E-02    0.585E-02
DAV:  18    -0.663367901991E+03   -0.13220E-03   -0.22849E-04 34208   0.385E-02    0.333E-02
DAV:  19    -0.663367937828E+03   -0.35837E-04   -0.60109E-05 29240   0.189E-02    0.149E-02
DAV:  20    -0.663367943814E+03   -0.59856E-05   -0.12926E-05 22336   0.102E-02
   1 F= -.66336794E+03 E0= -.66336794E+03  d E =0.000000E+00  mag=     0.0001
