 running on   12 total cores
 distrk:  each k-point on   12 cores,    1 groups
 distr:  one band on    6 cores,    2 groups
 using from now: INCAR     
 vasp.6.1.2 22Jul20 (build Mar 20 2021 11:25:07) complex                        
  
 POSCAR found type information on POSCAR LiP 
 POSCAR found :  2 types and       8 ions
 scaLAPACK will be used
 -----------------------------------------------------------------------------
|                                                                             |
|               ----> ADVICE to this user running VASP <----                  |
|                                                                             |
|     You have a (more or less) 'small supercell' and for smaller cells       |
|     it is recommended to use the reciprocal-space projection scheme!        |
|     The real-space optimization is not efficient for small cells and it     |
|     is also less accurate ...                                               |
|     Therefore, set LREAL=.FALSE. in the INCAR file.                         |
|                                                                             |
 -----------------------------------------------------------------------------

 LDA part: xc-table for Pade appr. of Perdew
 -----------------------------------------------------------------------------
|                                                                             |
|           W    W    AA    RRRRR   N    N  II  N    N   GGGG   !!!           |
|           W    W   A  A   R    R  NN   N  II  NN   N  G    G  !!!           |
|           W    W  A    A  R    R  N N  N  II  N N  N  G       !!!           |
|           W WW W  AAAAAA  RRRRR   N  N N  II  N  N N  G  GGG   !            |
|           WW  WW  A    A  R   R   N   NN  II  N   NN  G    G                |
|           W    W  A    A  R    R  N    N  II  N    N   GGGG   !!!           |
|                                                                             |
|     The determination of the symmetry of your systems shows a strong        |
|     dependence on the tolerance parameter SYMPREC. This is often the        |
|     result of "noise" in the structural parameters (lattice vectors         |
|     and/or ionic positions). Set NWRITE=3 for more details.                 |
|                                                                             |
 -----------------------------------------------------------------------------

 generate k-points for:    9    9    4
 POSCAR, INCAR and KPOINTS ok, starting setup
 FFT: planning ...
 WAVECAR not read
 entering main loop
       N       E                     dE             d eps       ncg     rms          rms(c)
DAV:   1     0.155290468936E+03    0.15529E+03   -0.11946E+04  3168   0.128E+03
DAV:   2     0.137131954055E+01   -0.15392E+03   -0.14606E+03  3540   0.314E+02
DAV:   3    -0.234148885812E+02   -0.24786E+02   -0.24634E+02  5436   0.736E+01
DAV:   4    -0.263955984056E+02   -0.29807E+01   -0.29591E+01  4922   0.345E+01
DAV:   5    -0.266548228276E+02   -0.25922E+00   -0.25919E+00  5108   0.778E+00    0.148E+01
RMM:   6    -0.270832234401E+02   -0.42840E+00   -0.18629E+00  3880   0.708E+00    0.752E+00
RMM:   7    -0.278031756367E+02   -0.71995E+00   -0.60532E-01  4277   0.495E+00    0.280E+00
RMM:   8    -0.278862690999E+02   -0.83093E-01   -0.51581E-01  4975   0.327E+00    0.122E+00
RMM:   9    -0.278961767262E+02   -0.99076E-02   -0.11313E-01  5186   0.199E+00    0.570E-01
RMM:  10    -0.279049201574E+02   -0.87434E-02   -0.55401E-02  5464   0.117E+00    0.277E-01
RMM:  11    -0.279077839232E+02   -0.28638E-02   -0.21858E-02  5592   0.689E-01    0.215E-01
RMM:  12    -0.279088256456E+02   -0.10417E-02   -0.86454E-03  5501   0.506E-01    0.561E-02
RMM:  13    -0.279095158359E+02   -0.69019E-03   -0.44810E-03  5582   0.319E-01    0.226E-02
RMM:  14    -0.279098083046E+02   -0.29247E-03   -0.25152E-03  5327   0.216E-01    0.257E-02
RMM:  15    -0.279099422045E+02   -0.13390E-03   -0.12222E-03  4774   0.149E-01    0.210E-02
RMM:  16    -0.279100160989E+02   -0.73894E-04   -0.70203E-04  4713   0.111E-01    0.284E-02
RMM:  17    -0.279100536841E+02   -0.37585E-04   -0.40773E-04  4677   0.908E-02    0.202E-02
RMM:  18    -0.279100797328E+02   -0.26049E-04   -0.26011E-04  4137   0.697E-02    0.189E-02
RMM:  19    -0.279100962231E+02   -0.16490E-04   -0.17595E-04  4132   0.585E-02    0.181E-02
RMM:  20    -0.279101068382E+02   -0.10615E-04   -0.10979E-04  3637   0.493E-02    0.181E-02
RMM:  21    -0.279101144733E+02   -0.76351E-05   -0.82248E-05  3638   0.448E-02
   1 F= -.27910114E+02 E0= -.27910114E+02  d E =0.000000E+00  mag=    -0.0001
