   16   16    1    2
  0.1368727E+02  0.5497812E-09  0.5043864E-09  0.9240513E-09  0.5000000E-15
  1.000000000000000E-004
  CAR 
 unknown system                          
     80     86     54
 
  0.0000000E+00  0.0000000E+00  0.0000000E+00  0.5952381E-02
    1      -16.671531    -16.671264   1.000000   1.000000
    2      -15.853824    -15.853570   1.000000   1.000000
    3      -15.005136    -15.004889   1.000000   1.000000
    4      -13.047541    -13.047367   1.000000   1.000000
    5      -12.885595    -12.885424   1.000000   1.000000
    6      -12.571543    -12.571357   1.000000   1.000000
    7      -12.521239    -12.521118   1.000000   1.000000
    8      -12.202402    -12.202252   1.000000   1.000000
    9      -12.179217    -12.179058   1.000000   1.000000
   10      -11.597156    -11.597037   1.000000   1.000000
   11       -9.387412     -9.387171   1.000000   1.000000
   12       -9.103141     -9.102829   1.000000   1.000000
   13       -8.773664     -8.773376   1.000000   1.000000
   14       -6.184924     -6.184653   1.000000   1.000000
   15       -6.170020     -6.169729   1.000000   1.000000
   16       -5.391286     -5.390986   1.000000   1.000000
   17       -4.705639     -4.705369   1.000000   1.000000
   18       -4.297015     -4.296729   1.000000   1.000000
   19       -3.864086     -3.863796   1.000000   1.000000
   20       -3.581762     -3.581398   1.000000   1.000000
   21       -2.993384     -2.993105   1.000000   1.000000
   22       -2.875732     -2.875430   1.000000   1.000000
   23       -2.777199     -2.776942   1.000000   1.000000
   24       -2.306635     -2.306390   1.000000   1.000000
   25       -0.470837     -0.470527   1.000000   1.000000
   26       -0.168168     -0.167904   1.000000   1.000000
   27        0.050694      0.050959   1.000000   1.000000
   28        0.321569      0.321826   1.000000   1.000000
   29        0.333200      0.333478   1.000000   1.000000
   30        0.558005      0.558263   1.000000   1.000000
   31        0.625235      0.625476   1.000000   1.000000
   32        0.880740      0.880958   1.000000   1.000000
   33        1.154770      1.154990   1.000000   1.000000
   34        1.372754      1.372973   1.000000   1.000000
   35        1.548487      1.548702   1.000000   1.000000
   36        2.032522      2.032665   1.000000   1.000000
   37        2.174756      2.174907   1.000000   1.000000
   38        2.573284      2.573445   1.000000   1.000000
   39        2.833311      2.833397   1.000000   1.000000
   40        3.220777      3.220857   1.000000   1.000000
   41        5.654078      5.654529   0.000000   0.000000
   42        6.658623      6.659069   0.000000   0.000000
   43        7.318238      7.318701   0.000000   0.000000
   44        7.643788      7.644330   0.000000   0.000000
   45        8.188243      8.188750   0.000000   0.000000
   46        8.192182      8.192778   0.000000   0.000000
   47        8.526993      8.527463   0.000000   0.000000
   48        8.702029      8.702313   0.000000   0.000000
   49        8.850761      8.851279   0.000000   0.000000
   50        8.929540      8.930075   0.000000   0.000000
   51        9.406567      9.407002   0.000000   0.000000
   52       10.245498     10.246021   0.000000   0.000000
   53       10.618978     10.620436   0.000000   0.000000
   54       10.664866     10.666003   0.000000   0.000000
 
  0.1666667E+00 -0.1137688E-16  0.2100164E-16  0.1190476E-01
    1      -16.625038    -16.624771   1.000000   1.000000
    2      -15.862248    -15.861994   1.000000   1.000000
    3      -14.971463    -14.971219   1.000000   1.000000
    4      -13.276515    -13.276311   1.000000   1.000000
    5      -12.978395    -12.978214   1.000000   1.000000
    6      -12.686556    -12.686394   1.000000   1.000000
    7      -12.513303    -12.513182   1.000000   1.000000
    8      -12.235767    -12.235612   1.000000   1.000000
    9      -11.826961    -11.826825   1.000000   1.000000
   10      -11.601731    -11.601611   1.000000   1.000000
   11       -9.835162     -9.834873   1.000000   1.000000
   12       -8.748688     -8.748391   1.000000   1.000000
   13       -8.364324     -8.364069   1.000000   1.000000
   14       -6.461866     -6.461592   1.000000   1.000000
   15       -5.930316     -5.930034   1.000000   1.000000
   16       -5.414264     -5.413970   1.000000   1.000000
   17       -4.713061     -4.712784   1.000000   1.000000
   18       -4.459314     -4.459028   1.000000   1.000000
   19       -3.759337     -3.759015   1.000000   1.000000
   20       -3.482610     -3.482299   1.000000   1.000000
   21       -3.116663     -3.116351   1.000000   1.000000
   22       -2.923747     -2.923478   1.000000   1.000000
   23       -2.724025     -2.723761   1.000000   1.000000
   24       -2.351020     -2.350774   1.000000   1.000000
   25       -0.700429     -0.700106   1.000000   1.000000
   26       -0.238983     -0.238707   1.000000   1.000000
   27       -0.159119     -0.158864   1.000000   1.000000
   28        0.338256      0.338543   1.000000   1.000000
   29        0.465860      0.466103   1.000000   1.000000
   30        0.577457      0.577704   1.000000   1.000000
   31        0.754221      0.754475   1.000000   1.000000
   32        0.878689      0.878918   1.000000   1.000000
   33        1.185109      1.185311   1.000000   1.000000
   34        1.376335      1.376574   1.000000   1.000000
   35        1.603804      1.604004   1.000000   1.000000
   36        2.010647      2.010804   1.000000   1.000000
   37        2.118377      2.118539   1.000000   1.000000
   38        2.509448      2.509609   1.000000   1.000000
   39        2.736677      2.736780   1.000000   1.000000
   40        3.121354      3.121450   1.000000   1.000000
   41        5.948832      5.949282   0.000000   0.000000
   42        6.884699      6.885117   0.000000   0.000000
   43        7.189862      7.190393   0.000000   0.000000
   44        7.505517      7.506111   0.000000   0.000000
   45        8.080523      8.081033   0.000000   0.000000
   46        8.425443      8.425970   0.000000   0.000000
   47        8.449338      8.449821   0.000000   0.000000
   48        8.751343      8.751661   0.000000   0.000000
   49        8.927207      8.927688   0.000000   0.000000
   50        9.500009      9.500490   0.000000   0.000000
   51        9.698852      9.699232   0.000000   0.000000
   52        9.886757      9.887183   0.000000   0.000000
   53       10.357575     10.358020   0.000000   0.000000
   54       10.701497     10.704694   0.000000   0.000000
 
  0.3333333E+00  0.2910501E-18  0.5611376E-16  0.1190476E-01
    1      -16.517053    -16.516790   1.000000   1.000000
    2      -15.888100    -15.887845   1.000000   1.000000
    3      -14.910864    -14.910624   1.000000   1.000000
    4      -13.619622    -13.619397   1.000000   1.000000
    5      -13.156154    -13.155962   1.000000   1.000000
    6      -12.722152    -12.721989   1.000000   1.000000
    7      -12.506103    -12.505981   1.000000   1.000000
    8      -12.165982    -12.165830   1.000000   1.000000
    9      -11.668660    -11.668546   1.000000   1.000000
   10      -11.638888    -11.638763   1.000000   1.000000
   11       -9.937715     -9.937414   1.000000   1.000000
   12       -8.378382     -8.378109   1.000000   1.000000
   13       -7.979399     -7.979150   1.000000   1.000000
   14       -6.465446     -6.465171   1.000000   1.000000
   15       -5.746941     -5.746668   1.000000   1.000000
   16       -5.546377     -5.546098   1.000000   1.000000
   17       -4.773504     -4.773217   1.000000   1.000000
   18       -4.663788     -4.663502   1.000000   1.000000
   19       -3.695693     -3.695364   1.000000   1.000000
   20       -3.270987     -3.270679   1.000000   1.000000
   21       -3.218320     -3.218040   1.000000   1.000000
   22       -2.968989     -2.968713   1.000000   1.000000
   23       -2.760412     -2.760150   1.000000   1.000000
   24       -2.531726     -2.531465   1.000000   1.000000
   25       -0.838687     -0.838375   1.000000   1.000000
   26       -0.602213     -0.601906   1.000000   1.000000
   27       -0.508926     -0.508642   1.000000   1.000000
   28        0.262117      0.262397   1.000000   1.000000
   29        0.555226      0.555490   1.000000   1.000000
   30        0.758892      0.759116   1.000000   1.000000
   31        0.936151      0.936394   1.000000   1.000000
   32        1.018716      1.018934   1.000000   1.000000
   33        1.187449      1.187658   1.000000   1.000000
   34        1.496482      1.496717   1.000000   1.000000
   35        1.628235      1.628424   1.000000   1.000000
   36        1.952010      1.952184   1.000000   1.000000
   37        2.031520      2.031712   1.000000   1.000000
   38        2.340342      2.340506   1.000000   1.000000
   39        2.585330      2.585464   1.000000   1.000000
   40        3.044916      3.045011   1.000000   1.000000
   41        6.254243      6.254750   0.000000   0.000000
   42        6.740257      6.740840   0.000000   0.000000
   43        7.468569      7.469100   0.000000   0.000000
   44        7.646979      7.647361   0.000000   0.000000
   45        8.247173      8.247728   0.000000   0.000000
   46        8.452871      8.453416   0.000000   0.000000
   47        8.882728      8.883263   0.000000   0.000000
   48        9.129056      9.129499   0.000000   0.000000
   49        9.237678      9.237993   0.000000   0.000000
   50        9.351350      9.351793   0.000000   0.000000
   51        9.873140      9.873614   0.000000   0.000000
   52        9.943551      9.944039   0.000000   0.000000
   53       10.138388     10.138582   0.000000   0.000000
   54       10.375469     10.369625   0.000000   0.000000
 
  0.5000000E+00  0.1301873E-16  0.8985985E-16  0.5952381E-02
    1      -16.451471    -16.451211   1.000000   1.000000
    2      -15.909558    -15.909302   1.000000   1.000000
    3      -14.886283    -14.886045   1.000000   1.000000
    4      -13.750469    -13.750240   1.000000   1.000000
    5      -13.236592    -13.236394   1.000000   1.000000
    6      -12.736626    -12.736459   1.000000   1.000000
    7      -12.504414    -12.504291   1.000000   1.000000
    8      -12.073628    -12.073477   1.000000   1.000000
    9      -11.758249    -11.758117   1.000000   1.000000
   10      -11.660807    -11.660695   1.000000   1.000000
   11       -9.808114     -9.807824   1.000000   1.000000
   12       -8.205255     -8.205000   1.000000   1.000000
   13       -7.992900     -7.992641   1.000000   1.000000
   14       -6.172329     -6.172049   1.000000   1.000000
   15       -5.777406     -5.777119   1.000000   1.000000
   16       -5.630541     -5.630291   1.000000   1.000000
   17       -4.889258     -4.889000   1.000000   1.000000
   18       -4.708615     -4.708302   1.000000   1.000000
   19       -3.535036     -3.534725   1.000000   1.000000
   20       -3.480349     -3.480053   1.000000   1.000000
   21       -3.069241     -3.068953   1.000000   1.000000
   22       -2.906797     -2.906522   1.000000   1.000000
   23       -2.799419     -2.799176   1.000000   1.000000
   24       -2.749440     -2.749136   1.000000   1.000000
   25       -0.797270     -0.797014   1.000000   1.000000
   26       -0.776110     -0.775803   1.000000   1.000000
   27       -0.713040     -0.712684   1.000000   1.000000
   28        0.233212      0.233488   1.000000   1.000000
   29        0.566040      0.566321   1.000000   1.000000
   30        0.812697      0.812904   1.000000   1.000000
   31        1.007537      1.007760   1.000000   1.000000
   32        1.156881      1.157104   1.000000   1.000000
   33        1.185927      1.186144   1.000000   1.000000
   34        1.506059      1.506266   1.000000   1.000000
   35        1.593506      1.593722   1.000000   1.000000
   36        1.964646      1.964835   1.000000   1.000000
   37        2.011285      2.011470   1.000000   1.000000
   38        2.238815      2.238985   1.000000   1.000000
   39        2.516227      2.516376   1.000000   1.000000
   40        3.069640      3.069720   1.000000   1.000000
   41        6.129939      6.130583   0.000000   0.000000
   42        6.684047      6.684503   0.000000   0.000000
   43        7.725387      7.725946   0.000000   0.000000
   44        8.196765      8.197223   0.000000   0.000000
   45        8.607935      8.608491   0.000000   0.000000
   46        8.612142      8.612583   0.000000   0.000000
   47        8.759046      8.759498   0.000000   0.000000
   48        8.841956      8.842467   0.000000   0.000000
   49        9.231566      9.232109   0.000000   0.000000
   50        9.445957      9.446387   0.000000   0.000000
   51        9.652975      9.653536   0.000000   0.000000
   52        9.719023      9.719482   0.000000   0.000000
   53       10.376698     10.376815   0.000000   0.000000
   54       10.398014     10.381863   0.000000   0.000000
 
  0.1337942E-17  0.1428571E+00  0.1033037E-15  0.1190476E-01
    1      -16.603568    -16.603301   1.000000   1.000000
    2      -15.828994    -15.828740   1.000000   1.000000
    3      -14.942013    -14.941768   1.000000   1.000000
    4      -13.541006    -13.540804   1.000000   1.000000
    5      -13.112135    -13.111961   1.000000   1.000000
    6      -12.553935    -12.553798   1.000000   1.000000
    7      -12.332815    -12.332645   1.000000   1.000000
    8      -12.224509    -12.224376   1.000000   1.000000
    9      -11.917914    -11.917765   1.000000   1.000000
   10      -11.578884    -11.578767   1.000000   1.000000
   11       -9.765636     -9.765359   1.000000   1.000000
   12       -8.788068     -8.787762   1.000000   1.000000
   13       -8.274099     -8.273834   1.000000   1.000000
   14       -6.600115     -6.599849   1.000000   1.000000
   15       -5.942663     -5.942381   1.000000   1.000000
   16       -5.334738     -5.334443   1.000000   1.000000
   17       -4.736873     -4.736599   1.000000   1.000000
   18       -4.405389     -4.405095   1.000000   1.000000
   19       -3.715408     -3.715134   1.000000   1.000000
   20       -3.634927     -3.634561   1.000000   1.000000
   21       -3.113004     -3.112703   1.000000   1.000000
   22       -2.809717     -2.809445   1.000000   1.000000
   23       -2.755489     -2.755227   1.000000   1.000000
   24       -2.297891     -2.297651   1.000000   1.000000
   25       -0.519063     -0.518739   1.000000   1.000000
   26       -0.338711     -0.338429   1.000000   1.000000
   27       -0.002514     -0.002242   1.000000   1.000000
   28        0.291870      0.292108   1.000000   1.000000
   29        0.375786      0.376050   1.000000   1.000000
   30        0.645014      0.645249   1.000000   1.000000
   31        0.765042      0.765294   1.000000   1.000000
   32        0.876809      0.877035   1.000000   1.000000
   33        1.024613      1.024835   1.000000   1.000000
   34        1.361106      1.361336   1.000000   1.000000
   35        1.686995      1.687197   1.000000   1.000000
   36        1.962987      1.963135   1.000000   1.000000
   37        2.116849      2.117008   1.000000   1.000000
   38        2.524299      2.524465   1.000000   1.000000
   39        2.792927      2.793020   1.000000   1.000000
   40        3.104497      3.104594   1.000000   1.000000
   41        5.712241      5.712690   0.000000   0.000000
   42        6.584584      6.585039   0.000000   0.000000
   43        7.326347      7.326800   0.000000   0.000000
   44        7.692000      7.692565   0.000000   0.000000
   45        7.924353      7.924948   0.000000   0.000000
   46        8.260695      8.261202   0.000000   0.000000
   47        8.555826      8.556337   0.000000   0.000000
   48        8.642165      8.642651   0.000000   0.000000
   49        9.001605      9.001933   0.000000   0.000000
   50        9.275304      9.275782   0.000000   0.000000
   51        9.614808      9.615293   0.000000   0.000000
   52        9.885852      9.886374   0.000000   0.000000
   53       10.209832     10.210160   0.000000   0.000000
   54       10.806169     10.806287   0.000000   0.000000
 
  0.1666667E+00  0.1428571E+00  0.1670721E-15  0.1190476E-01
    1      -16.561561    -16.561296   1.000000   1.000000
    2      -15.862041    -15.861786   1.000000   1.000000
    3      -14.857095    -14.856854   1.000000   1.000000
    4      -13.582509    -13.582307   1.000000   1.000000
    5      -13.126503    -13.126325   1.000000   1.000000
    6      -12.759996    -12.759799   1.000000   1.000000
    7      -12.498305    -12.498171   1.000000   1.000000
    8      -12.199189    -12.199052   1.000000   1.000000
    9      -11.841479    -11.841346   1.000000   1.000000
   10      -11.607093    -11.606973   1.000000   1.000000
   11       -9.143632     -9.143379   1.000000   1.000000
   12       -8.794508     -8.794213   1.000000   1.000000
   13       -8.518373     -8.518094   1.000000   1.000000
   14       -6.792773     -6.792506   1.000000   1.000000
   15       -5.575197     -5.574910   1.000000   1.000000
   16       -5.371096     -5.370803   1.000000   1.000000
   17       -4.669953     -4.669694   1.000000   1.000000
   18       -4.364779     -4.364492   1.000000   1.000000
   19       -3.908187     -3.907878   1.000000   1.000000
   20       -3.577324     -3.576999   1.000000   1.000000
   21       -3.067111     -3.066803   1.000000   1.000000
   22       -2.967494     -2.967219   1.000000   1.000000
   23       -2.735581     -2.735313   1.000000   1.000000
   24       -2.401401     -2.401160   1.000000   1.000000
   25       -0.664322     -0.663974   1.000000   1.000000
   26       -0.362105     -0.361843   1.000000   1.000000
   27       -0.171847     -0.171580   1.000000   1.000000
   28        0.154774      0.155063   1.000000   1.000000
   29        0.422269      0.422518   1.000000   1.000000
   30        0.665497      0.665728   1.000000   1.000000
   31        0.839458      0.839681   1.000000   1.000000
   32        1.013507      1.013718   1.000000   1.000000
   33        1.072733      1.072963   1.000000   1.000000
   34        1.409962      1.410195   1.000000   1.000000
   35        1.687811      1.688011   1.000000   1.000000
   36        1.902112      1.902272   1.000000   1.000000
   37        2.095869      2.096039   1.000000   1.000000
   38        2.488109      2.488272   1.000000   1.000000
   39        2.663565      2.663687   1.000000   1.000000
   40        3.022845      3.022955   1.000000   1.000000
   41        6.079744      6.080178   0.000000   0.000000
   42        6.776053      6.776513   0.000000   0.000000
   43        7.144072      7.144641   0.000000   0.000000
   44        7.618778      7.619385   0.000000   0.000000
   45        7.912363      7.912798   0.000000   0.000000
   46        8.409987      8.410533   0.000000   0.000000
   47        8.546809      8.547320   0.000000   0.000000
   48        8.911668      8.912021   0.000000   0.000000
   49        9.135190      9.135543   0.000000   0.000000
   50        9.310492      9.310876   0.000000   0.000000
   51        9.500456      9.500953   0.000000   0.000000
   52        9.911564      9.912020   0.000000   0.000000
   53       10.427536     10.428118   0.000000   0.000000
   54       10.607587     10.613243   0.000000   0.000000
 
  0.3333333E+00  0.1428571E+00  0.2738398E-15  0.1190476E-01
    1      -16.455700    -16.455439   1.000000   1.000000
    2      -15.875584    -15.875327   1.000000   1.000000
    3      -14.789030    -14.788793   1.000000   1.000000
    4      -13.840948    -13.840730   1.000000   1.000000
    5      -13.307643    -13.307443   1.000000   1.000000
    6      -12.810262    -12.810076   1.000000   1.000000
    7      -12.473460    -12.473330   1.000000   1.000000
    8      -12.214874    -12.214729   1.000000   1.000000
    9      -11.751406    -11.751281   1.000000   1.000000
   10      -11.645046    -11.644922   1.000000   1.000000
   11       -9.213090     -9.212823   1.000000   1.000000
   12       -8.409994     -8.409720   1.000000   1.000000
   13       -8.161122     -8.160865   1.000000   1.000000
   14       -6.735026     -6.734758   1.000000   1.000000
   15       -5.586365     -5.586094   1.000000   1.000000
   16       -5.344143     -5.343857   1.000000   1.000000
   17       -4.669660     -4.669383   1.000000   1.000000
   18       -4.526430     -4.526166   1.000000   1.000000
   19       -3.986636     -3.986312   1.000000   1.000000
   20       -3.386554     -3.386251   1.000000   1.000000
   21       -3.263153     -3.262865   1.000000   1.000000
   22       -2.862363     -2.862073   1.000000   1.000000
   23       -2.764891     -2.764614   1.000000   1.000000
   24       -2.601584     -2.601335   1.000000   1.000000
   25       -0.786985     -0.786663   1.000000   1.000000
   26       -0.626099     -0.625805   1.000000   1.000000
   27       -0.474452     -0.474162   1.000000   1.000000
   28        0.090065      0.090367   1.000000   1.000000
   29        0.528869      0.529126   1.000000   1.000000
   30        0.713913      0.714131   1.000000   1.000000
   31        0.935730      0.935954   1.000000   1.000000
   32        1.010012      1.010217   1.000000   1.000000
   33        1.291008      1.291231   1.000000   1.000000
   34        1.458755      1.458972   1.000000   1.000000
   35        1.680798      1.681011   1.000000   1.000000
   36        1.819785      1.819953   1.000000   1.000000
   37        2.047488      2.047687   1.000000   1.000000
   38        2.352212      2.352379   1.000000   1.000000
   39        2.517260      2.517404   1.000000   1.000000
   40        2.958804      2.958915   1.000000   1.000000
   41        6.497986      6.498513   0.000000   0.000000
   42        6.809261      6.809815   0.000000   0.000000
   43        7.354931      7.355389   0.000000   0.000000
   44        7.655261      7.655784   0.000000   0.000000
   45        7.936957      7.937463   0.000000   0.000000
   46        8.589518      8.590064   0.000000   0.000000
   47        8.844329      8.844805   0.000000   0.000000
   48        8.894811      8.895367   0.000000   0.000000
   49        9.187727      9.188099   0.000000   0.000000
   50        9.450411      9.450736   0.000000   0.000000
   51        9.941687      9.941957   0.000000   0.000000
   52       10.065623     10.066100   0.000000   0.000000
   53       10.100706     10.101080   0.000000   0.000000
   54       10.567742     10.524076   0.000000   0.000000
 
  0.5000000E+00  0.1428571E+00  0.1353857E-15  0.1190476E-01
    1      -16.389642    -16.389384   1.000000   1.000000
    2      -15.854182    -15.853927   1.000000   1.000000
    3      -14.815693    -14.815456   1.000000   1.000000
    4      -14.041080    -14.040853   1.000000   1.000000
    5      -13.401890    -13.401685   1.000000   1.000000
    6      -12.661004    -12.660838   1.000000   1.000000
    7      -12.411219    -12.411089   1.000000   1.000000
    8      -12.163940    -12.163782   1.000000   1.000000
    9      -11.835228    -11.835093   1.000000   1.000000
   10      -11.672707    -11.672587   1.000000   1.000000
   11       -9.496937     -9.496668   1.000000   1.000000
   12       -8.077472     -8.077215   1.000000   1.000000
   13       -7.877790     -7.877538   1.000000   1.000000
   14       -6.348516     -6.348243   1.000000   1.000000
   15       -5.883822     -5.883548   1.000000   1.000000
   16       -5.403511     -5.403247   1.000000   1.000000
   17       -4.884924     -4.884669   1.000000   1.000000
   18       -4.708810     -4.708499   1.000000   1.000000
   19       -3.696666     -3.696367   1.000000   1.000000
   20       -3.536093     -3.535777   1.000000   1.000000
   21       -3.079353     -3.079079   1.000000   1.000000
   22       -2.987896     -2.987587   1.000000   1.000000
   23       -2.758591     -2.758345   1.000000   1.000000
   24       -2.611906     -2.611636   1.000000   1.000000
   25       -0.841745     -0.841472   1.000000   1.000000
   26       -0.727440     -0.727139   1.000000   1.000000
   27       -0.587091     -0.586753   1.000000   1.000000
   28        0.082375      0.082673   1.000000   1.000000
   29        0.579541      0.579802   1.000000   1.000000
   30        0.745932      0.746148   1.000000   1.000000
   31        0.920505      0.920733   1.000000   1.000000
   32        1.093034      1.093269   1.000000   1.000000
   33        1.180042      1.180270   1.000000   1.000000
   34        1.429389      1.429602   1.000000   1.000000
   35        1.703350      1.703544   1.000000   1.000000
   36        1.926193      1.926382   1.000000   1.000000
   37        1.957318      1.957516   1.000000   1.000000
   38        2.312516      2.312674   1.000000   1.000000
   39        2.444727      2.444885   1.000000   1.000000
   40        2.998499      2.998593   1.000000   1.000000
   41        6.259786      6.260435   0.000000   0.000000
   42        6.821832      6.822257   0.000000   0.000000
   43        7.767473      7.768000   0.000000   0.000000
   44        8.012007      8.012505   0.000000   0.000000
   45        8.276266      8.276811   0.000000   0.000000
   46        8.576312      8.576859   0.000000   0.000000
   47        8.719725      8.720210   0.000000   0.000000
   48        9.044711      9.045089   0.000000   0.000000
   49        9.107322      9.107858   0.000000   0.000000
   50        9.286737      9.287299   0.000000   0.000000
   51        9.718176      9.718581   0.000000   0.000000
   52       10.169736     10.170229   0.000000   0.000000
   53       10.396387     10.396775   0.000000   0.000000
   54       10.502832     10.504026   0.000000   0.000000
 
 -0.3333333E+00  0.1428571E+00  0.1943439E-16  0.1190476E-01
    1      -16.449702    -16.449441   1.000000   1.000000
    2      -15.804483    -15.804230   1.000000   1.000000
    3      -14.901048    -14.900806   1.000000   1.000000
    4      -14.004766    -14.004541   1.000000   1.000000
    5      -13.341880    -13.341681   1.000000   1.000000
    6      -12.578031    -12.577889   1.000000   1.000000
    7      -12.365735    -12.365602   1.000000   1.000000
    8      -12.048153    -12.048011   1.000000   1.000000
    9      -11.776489    -11.776343   1.000000   1.000000
   10      -11.651082    -11.650964   1.000000   1.000000
   11      -10.086124    -10.085824   1.000000   1.000000
   12       -8.019717     -8.019456   1.000000   1.000000
   13       -7.557035     -7.556794   1.000000   1.000000
   14       -6.566119     -6.565841   1.000000   1.000000
   15       -6.039319     -6.039053   1.000000   1.000000
   16       -5.366211     -5.365931   1.000000   1.000000
   17       -4.996211     -4.995943   1.000000   1.000000
   18       -4.772730     -4.772417   1.000000   1.000000
   19       -3.621693     -3.621351   1.000000   1.000000
   20       -3.360788     -3.360470   1.000000   1.000000
   21       -3.115576     -3.115294   1.000000   1.000000
   22       -3.021557     -3.021297   1.000000   1.000000
   23       -2.756136     -2.755896   1.000000   1.000000
   24       -2.381595     -2.381343   1.000000   1.000000
   25       -0.863336     -0.863044   1.000000   1.000000
   26       -0.529465     -0.529187   1.000000   1.000000
   27       -0.429014     -0.428698   1.000000   1.000000
   28        0.166831      0.167123   1.000000   1.000000
   29        0.492688      0.492956   1.000000   1.000000
   30        0.651806      0.652047   1.000000   1.000000
   31        0.837908      0.838144   1.000000   1.000000
   32        1.030848      1.031085   1.000000   1.000000
   33        1.204878      1.205103   1.000000   1.000000
   34        1.410598      1.410816   1.000000   1.000000
   35        1.665185      1.665380   1.000000   1.000000
   36        1.910865      1.911046   1.000000   1.000000
   37        2.061642      2.061825   1.000000   1.000000
   38        2.302460      2.302625   1.000000   1.000000
   39        2.559180      2.559315   1.000000   1.000000
   40        3.004915      3.005014   1.000000   1.000000
   41        6.270766      6.271235   0.000000   0.000000
   42        6.695667      6.696274   0.000000   0.000000
   43        7.349879      7.350405   0.000000   0.000000
   44        7.966355      7.966709   0.000000   0.000000
   45        8.242449      8.243021   0.000000   0.000000
   46        8.610958      8.611514   0.000000   0.000000
   47        8.772980      8.773549   0.000000   0.000000
   48        9.002344      9.002808   0.000000   0.000000
   49        9.032643      9.033149   0.000000   0.000000
   50        9.598461      9.599021   0.000000   0.000000
   51        9.736462      9.736765   0.000000   0.000000
   52        9.957125      9.957607   0.000000   0.000000
   53       10.392025     10.392341   0.000000   0.000000
   54       10.433272     10.433586   0.000000   0.000000
 
 -0.1666667E+00  0.1428571E+00  0.1818202E-15  0.1190476E-01
    1      -16.554338    -16.554073   1.000000   1.000000
    2      -15.796337    -15.796085   1.000000   1.000000
    3      -14.961142    -14.960897   1.000000   1.000000
    4      -13.762633    -13.762419   1.000000   1.000000
    5      -13.203126    -13.202941   1.000000   1.000000
    6      -12.561212    -12.561076   1.000000   1.000000
    7      -12.322930    -12.322793   1.000000   1.000000
    8      -12.167560    -12.167414   1.000000   1.000000
    9      -11.650496    -11.650381   1.000000   1.000000
   10      -11.525242    -11.525126   1.000000   1.000000
   11      -10.373898    -10.373562   1.000000   1.000000
   12       -8.434976     -8.434687   1.000000   1.000000
   13       -7.679412     -7.679168   1.000000   1.000000
   14       -6.519383     -6.519120   1.000000   1.000000
   15       -6.289771     -6.289493   1.000000   1.000000
   16       -5.303610     -5.303322   1.000000   1.000000
   17       -4.789866     -4.789570   1.000000   1.000000