 running on   12 total cores
 distrk:  each k-point on   12 cores,    1 groups
 distr:  one band on    6 cores,    2 groups
 using from now: INCAR     
 vasp.6.1.2 22Jul20 (build Mar 20 2021 11:25:07) complex                        
  
 POSCAR found type information on POSCAR P N 
 POSCAR found :  2 types and      16 ions
 scaLAPACK will be used
 LDA part: xc-table for Pade appr. of Perdew
 generate k-points for:    6    7    4
 POSCAR, INCAR and KPOINTS ok, starting setup
 FFT: planning ...
 WAVECAR not read
 entering main loop
       N       E                     dE             d eps       ncg     rms          rms(c)
DAV:   1     0.461162725326E+03    0.46116E+03   -0.38976E+04 18576   0.134E+03
DAV:   2    -0.928224453241E+02   -0.55399E+03   -0.53018E+03 23690   0.295E+02
DAV:   3    -0.133193725192E+03   -0.40371E+02   -0.39958E+02 22952   0.850E+01
DAV:   4    -0.134120049276E+03   -0.92632E+00   -0.92203E+00 24600   0.132E+01
DAV:   5    -0.134143619443E+03   -0.23570E-01   -0.23535E-01 22904   0.204E+00    0.406E+01
DAV:   6    -0.115378880153E+03    0.18765E+02   -0.68031E+01 21776   0.317E+01    0.200E+01
DAV:   7    -0.117891301553E+03   -0.25124E+01   -0.89190E+00 22634   0.116E+01    0.683E+00
DAV:   8    -0.118398956464E+03   -0.50765E+00   -0.10973E+00 23008   0.420E+00    0.409E+00
DAV:   9    -0.118405255004E+03   -0.62985E-02   -0.95159E-02 22246   0.157E+00    0.213E+00
DAV:  10    -0.118403695777E+03    0.15592E-02   -0.21235E-02 24736   0.796E-01    0.423E-01
DAV:  11    -0.118405767292E+03   -0.20715E-02   -0.56070E-03 21888   0.385E-01    0.256E-01
DAV:  12    -0.118406219538E+03   -0.45225E-03   -0.68127E-04 24096   0.140E-01    0.157E-01
DAV:  13    -0.118406440940E+03   -0.22140E-03   -0.23899E-04 22758   0.790E-02    0.609E-02
DAV:  14    -0.118406490983E+03   -0.50043E-04   -0.43027E-05 21496   0.340E-02    0.187E-02
DAV:  15    -0.118406500294E+03   -0.93112E-05   -0.10248E-05 13810   0.164E-02
   1 F= -.11840650E+03 E0= -.11840650E+03  d E =0.000000E+00  mag=     0.0003
