 running on   12 total cores
 distrk:  each k-point on   12 cores,    1 groups
 distr:  one band on    6 cores,    2 groups
 using from now: INCAR     
 vasp.6.1.2 22Jul20 (build Mar 20 2021 11:25:07) complex                        
  
 POSCAR found type information on POSCAR P O 
 POSCAR found :  2 types and      14 ions
 scaLAPACK will be used
 LDA part: xc-table for Pade appr. of Perdew
 generate k-points for:    7    7    7
 POSCAR, INCAR and KPOINTS ok, starting setup
 FFT: planning ...
 WAVECAR not read
 entering main loop
       N       E                     dE             d eps       ncg     rms          rms(c)
DAV:   1     0.544001756120E+03    0.54400E+03   -0.42720E+04 36016   0.142E+03
DAV:   2    -0.721930359995E+02   -0.61619E+03   -0.59958E+03 44752   0.334E+02
DAV:   3    -0.109955134163E+03   -0.37762E+02   -0.37512E+02 43288   0.891E+01
DAV:   4    -0.110540364352E+03   -0.58523E+00   -0.58276E+00 44528   0.118E+01
DAV:   5    -0.110553586492E+03   -0.13222E-01   -0.13201E-01 43456   0.169E+00    0.425E+01
DAV:   6    -0.935489074330E+02    0.17005E+02   -0.56527E+01 40596   0.355E+01    0.214E+01
DAV:   7    -0.975544118685E+02   -0.40055E+01   -0.97834E+00 42320   0.126E+01    0.652E+00
DAV:   8    -0.982485142831E+02   -0.69410E+00   -0.17058E+00 42832   0.543E+00    0.288E+00
DAV:   9    -0.982424526823E+02    0.60616E-02   -0.78110E-02 42652   0.176E+00    0.137E+00
DAV:  10    -0.982417180425E+02    0.73464E-03   -0.30724E-02 48168   0.106E+00    0.426E-01
DAV:  11    -0.982428556482E+02   -0.11376E-02   -0.48370E-03 42056   0.370E-01    0.259E-01
DAV:  12    -0.982432303167E+02   -0.37467E-03   -0.17266E-03 45976   0.231E-01    0.108E-01
DAV:  13    -0.982433200151E+02   -0.89698E-04   -0.15396E-04 42648   0.778E-02    0.452E-02
DAV:  14    -0.982433369545E+02   -0.16939E-04   -0.96768E-05 44432   0.544E-02    0.177E-02
DAV:  15    -0.982433410985E+02   -0.41440E-05   -0.95805E-06 27200   0.194E-02
   1 F= -.98243341E+02 E0= -.98243341E+02  d E =0.000000E+00  mag=    -0.0004
