   16   16    1    2
  0.1001919E+02  0.4914828E-09  0.5288648E-09  0.6167364E-09  0.5000000E-15
  1.000000000000000E-004
  CAR 
 unknown system                          
     76     48     52
 
  0.0000000E+00  0.0000000E+00  0.0000000E+00  0.4761905E-02
    1      -41.281506    -41.281301   1.000000   1.000000
    2      -41.280859    -41.280654   1.000000   1.000000
    3      -40.958203    -40.958093   1.000000   1.000000
    4      -40.950301    -40.950190   1.000000   1.000000
    5      -40.950178    -40.950068   1.000000   1.000000
    6      -40.942035    -40.941924   1.000000   1.000000
    7      -18.429510    -18.429521   1.000000   1.000000
    8      -18.234846    -18.234858   1.000000   1.000000
    9      -15.900627    -15.900636   1.000000   1.000000
   10      -15.890321    -15.890330   1.000000   1.000000
   11      -15.835198    -15.835205   1.000000   1.000000
   12      -15.816426    -15.816436   1.000000   1.000000
   13      -15.790857    -15.790867   1.000000   1.000000
   14      -15.757107    -15.757114   1.000000   1.000000
   15       -5.695795     -5.695800   1.000000   1.000000
   16       -5.528474     -5.528481   1.000000   1.000000
   17       -3.653298     -3.653300   1.000000   1.000000
   18       -3.602300     -3.602303   1.000000   1.000000
   19       -3.427394     -3.427398   1.000000   1.000000
   20       -3.304624     -3.304629   1.000000   1.000000
   21       -3.185665     -3.185671   1.000000   1.000000
   22       -3.071427     -3.071433   1.000000   1.000000
   23       -1.246971     -1.246969   1.000000   1.000000
   24       -1.195770     -1.195768   1.000000   1.000000
   25       -1.099549     -1.099546   1.000000   1.000000
   26       -0.935063     -0.935062   1.000000   1.000000
   27       -0.736766     -0.736767   1.000000   1.000000
   28       -0.714698     -0.714694   1.000000   1.000000
   29       -0.596065     -0.596062   1.000000   1.000000
   30        0.084847      0.084845   1.000000   1.000000
   31        0.090304      0.090301   1.000000   1.000000
   32        0.215103      0.215103   1.000000   1.000000
   33        0.561106      0.561112   1.000000   1.000000
   34        0.673387      0.673394   1.000000   1.000000
   35        0.683181      0.683190   1.000000   1.000000
   36        0.819683      0.819692   1.000000   1.000000
   37        0.982448      0.982449   1.000000   1.000000
   38        1.085736      1.085743   1.000000   1.000000
   39        7.036048      7.036068   0.000000   0.000000
   40        9.448898      9.448840   0.000000   0.000000
   41       10.002785     10.002093   0.000000   0.000000
   42       10.094163     10.093808   0.000000   0.000000
   43       10.481742     10.481721   0.000000   0.000000
   44       10.491067     10.491052   0.000000   0.000000
   45       10.542511     10.542278   0.000000   0.000000
   46       11.311571     11.311578   0.000000   0.000000
   47       11.786160     11.773776   0.000000   0.000000
   48       12.420543     12.420999   0.000000   0.000000
   49       12.591316     12.569500   0.000000   0.000000
   50       13.363007     13.418916   0.000000   0.000000
   51       13.555105     13.564007   0.000000   0.000000
   52       13.983052     13.916568   0.000000   0.000000
 
  0.1428571E+00  0.0000000E+00  0.0000000E+00  0.9523810E-02
    1      -41.281438    -41.281233   1.000000   1.000000
    2      -41.280870    -41.280666   1.000000   1.000000
    3      -40.957818    -40.957707   1.000000   1.000000
    4      -40.950583    -40.950473   1.000000   1.000000
    5      -40.949867    -40.949756   1.000000   1.000000
    6      -40.942472    -40.942361   1.000000   1.000000
    7      -18.413231    -18.413241   1.000000   1.000000
    8      -18.236428    -18.236440   1.000000   1.000000
    9      -15.896177    -15.896185   1.000000   1.000000
   10      -15.895842    -15.895851   1.000000   1.000000
   11      -15.839474    -15.839482   1.000000   1.000000
   12      -15.820183    -15.820193   1.000000   1.000000
   13      -15.797058    -15.797068   1.000000   1.000000
   14      -15.776840    -15.776847   1.000000   1.000000
   15       -5.707602     -5.707607   1.000000   1.000000
   16       -5.528960     -5.528967   1.000000   1.000000
   17       -3.542806     -3.542808   1.000000   1.000000
   18       -3.536719     -3.536722   1.000000   1.000000
   19       -3.387980     -3.387984   1.000000   1.000000
   20       -3.280377     -3.280383   1.000000   1.000000
   21       -3.169984     -3.169990   1.000000   1.000000
   22       -3.069835     -3.069841   1.000000   1.000000
   23       -1.283012     -1.283010   1.000000   1.000000
   24       -1.255971     -1.255969   1.000000   1.000000
   25       -1.146841     -1.146837   1.000000   1.000000
   26       -1.003848     -1.003847   1.000000   1.000000
   27       -0.747601     -0.747597   1.000000   1.000000
   28       -0.655351     -0.655351   1.000000   1.000000
   29       -0.533925     -0.533923   1.000000   1.000000
   30        0.019558      0.019559   1.000000   1.000000
   31        0.050630      0.050628   1.000000   1.000000
   32        0.054247      0.054245   1.000000   1.000000
   33        0.605932      0.605937   1.000000   1.000000
   34        0.700945      0.700953   1.000000   1.000000
   35        0.747642      0.747650   1.000000   1.000000
   36        0.833720      0.833728   1.000000   1.000000
   37        0.959074      0.959077   1.000000   1.000000
   38        1.097558      1.097564   1.000000   1.000000
   39        7.233128      7.233146   0.000000   0.000000
   40        9.383994      9.384412   0.000000   0.000000
   41        9.604098      9.604043   0.000000   0.000000
   42        9.966623      9.966032   0.000000   0.000000
   43       10.534679     10.534677   0.000000   0.000000
   44       10.544407     10.544221   0.000000   0.000000
   45       10.833540     10.833663   0.000000   0.000000
   46       11.242787     11.242610   0.000000   0.000000
   47       11.861073     11.865162   0.000000   0.000000
   48       12.277615     12.275185   0.000000   0.000000
   49       12.342797     12.349869   0.000000   0.000000
   50       13.116833     13.106938   0.000000   0.000000
   51       13.438506     13.422261   0.000000   0.000000
   52       13.740321     13.742896   0.000000   0.000000
 
  0.2857143E+00  0.0000000E+00  0.0000000E+00  0.9523810E-02
    1      -41.281273    -41.281068   1.000000   1.000000
    2      -41.280890    -41.280685   1.000000   1.000000
    3      -40.956752    -40.956642   1.000000   1.000000
    4      -40.951699    -40.951589   1.000000   1.000000
    5      -40.948716    -40.948606   1.000000   1.000000
    6      -40.943584    -40.943474   1.000000   1.000000
    7      -18.370499    -18.370510   1.000000   1.000000
    8      -18.245942    -18.245954   1.000000   1.000000
    9      -15.910412    -15.910418   1.000000   1.000000
   10      -15.882164    -15.882173   1.000000   1.000000
   11      -15.842801    -15.842810   1.000000   1.000000
   12      -15.839749    -15.839757   1.000000   1.000000
   13      -15.814778    -15.814786   1.000000   1.000000
   14      -15.813905    -15.813915   1.000000   1.000000
   15       -5.714912     -5.714918   1.000000   1.000000
   16       -5.553365     -5.553372   1.000000   1.000000
   17       -3.429042     -3.429046   1.000000   1.000000
   18       -3.351411     -3.351416   1.000000   1.000000
   19       -3.217834     -3.217840   1.000000   1.000000
   20       -3.209166     -3.209169   1.000000   1.000000
   21       -3.071263     -3.071269   1.000000   1.000000
   22       -3.043347     -3.043351   1.000000   1.000000
   23       -1.367370     -1.367366   1.000000   1.000000
   24       -1.365801     -1.365797   1.000000   1.000000
   25       -1.238555     -1.238551   1.000000   1.000000
   26       -1.121812     -1.121810   1.000000   1.000000
   27       -0.861274     -0.861271   1.000000   1.000000
   28       -0.526281     -0.526279   1.000000   1.000000
   29       -0.429565     -0.429563   1.000000   1.000000
   30       -0.402461     -0.402460   1.000000   1.000000
   31       -0.045278     -0.045280   1.000000   1.000000
   32       -0.022638     -0.022640   1.000000   1.000000
   33        0.663295      0.663300   1.000000   1.000000
   34        0.823654      0.823661   1.000000   1.000000
   35        0.867850      0.867856   1.000000   1.000000
   36        0.877195      0.877203   1.000000   1.000000
   37        0.890972      0.890975   1.000000   1.000000
   38        1.115618      1.115623   1.000000   1.000000
   39        7.730488      7.730505   0.000000   0.000000
   40        8.976547      8.976715   0.000000   0.000000
   41        9.498550      9.498678   0.000000   0.000000
   42        9.850335      9.850523   0.000000   0.000000
   43       10.420757     10.420713   0.000000   0.000000
   44       10.654420     10.654560   0.000000   0.000000
   45       10.686746     10.686818   0.000000   0.000000
   46       11.077179     11.077081   0.000000   0.000000
   47       11.850868     11.850961   0.000000   0.000000
   48       12.058273     12.058801   0.000000   0.000000
   49       12.436117     12.438997   0.000000   0.000000
   50       12.710329     12.700334   0.000000   0.000000
   51       13.176882     13.168804   0.000000   0.000000
   52       13.319657     13.329200   0.000000   0.000000
 
  0.4285714E+00  0.0000000E+00  0.0000000E+00  0.9523810E-02
    1      -41.281086    -41.280881   1.000000   1.000000
    2      -41.280951    -41.280746   1.000000   1.000000
    3      -40.955134    -40.955023   1.000000   1.000000
    4      -40.953329    -40.953219   1.000000   1.000000
    5      -40.947052    -40.946942   1.000000   1.000000
    6      -40.945231    -40.945120   1.000000   1.000000
    7      -18.317275    -18.317287   1.000000   1.000000
    8      -18.272085    -18.272097   1.000000   1.000000
    9      -15.913167    -15.913173   1.000000   1.000000
   10      -15.886029    -15.886035   1.000000   1.000000
   11      -15.861434    -15.861444   1.000000   1.000000
   12      -15.838901    -15.838910   1.000000   1.000000
   13      -15.837052    -15.837061   1.000000   1.000000
   14      -15.830106    -15.830115   1.000000   1.000000
   15       -5.682575     -5.682581   1.000000   1.000000
   16       -5.615794     -5.615801   1.000000   1.000000
   17       -3.355650     -3.355655   1.000000   1.000000
   18       -3.320096     -3.320101   1.000000   1.000000
   19       -3.144683     -3.144689   1.000000   1.000000
   20       -3.092082     -3.092089   1.000000   1.000000
   21       -2.909579     -2.909583   1.000000   1.000000
   22       -2.824774     -2.824779   1.000000   1.000000
   23       -1.441122     -1.441119   1.000000   1.000000
   24       -1.436565     -1.436561   1.000000   1.000000
   25       -1.285759     -1.285754   1.000000   1.000000
   26       -1.230186     -1.230183   1.000000   1.000000
   27       -1.003160     -1.003154   1.000000   1.000000
   28       -0.913019     -0.913012   1.000000   1.000000
   29       -0.328357     -0.328358   1.000000   1.000000
   30       -0.260018     -0.260018   1.000000   1.000000
   31       -0.174975     -0.174977   1.000000   1.000000
   32       -0.129881     -0.129881   1.000000   1.000000
   33        0.721694      0.721699   1.000000   1.000000
   34        0.802120      0.802124   1.000000   1.000000
   35        0.930017      0.930023   1.000000   1.000000
   36        0.939524      0.939530   1.000000   1.000000
   37        0.982049      0.982054   1.000000   1.000000
   38        1.088003      1.088008   1.000000   1.000000
   39        8.297572      8.297586   0.000000   0.000000
   40        8.672334      8.672351   0.000000   0.000000
   41        9.598654      9.598827   0.000000   0.000000
   42        9.724209      9.724307   0.000000   0.000000
   43       10.143159     10.143130   0.000000   0.000000
   44       10.230635     10.230632   0.000000   0.000000
   45       10.777128     10.777105   0.000000   0.000000
   46       10.907094     10.907253   0.000000   0.000000
   47       11.857080     11.857022   0.000000   0.000000
   48       11.955432     11.955833   0.000000   0.000000
   49       12.641194     12.630577   0.000000   0.000000
   50       12.653987     12.650856   0.000000   0.000000
   51       13.036630     13.050327   0.000000   0.000000
   52       13.098590     13.297300   0.000000   0.000000
 
  0.0000000E+00  0.1666667E+00  0.0000000E+00  0.9523810E-02
    1      -41.281442    -41.281238   1.000000   1.000000
    2      -41.280855    -41.280650   1.000000   1.000000
    3      -40.958256    -40.958146   1.000000   1.000000
    4      -40.950237    -40.950127   1.000000   1.000000
    5      -40.950110    -40.949999   1.000000   1.000000
    6      -40.942121    -40.942010   1.000000   1.000000
    7      -18.418319    -18.418329   1.000000   1.000000
    8      -18.240521    -18.240533   1.000000   1.000000
    9      -15.901320    -15.901329   1.000000   1.000000
   10      -15.895383    -15.895392   1.000000   1.000000
   11      -15.841862    -15.841869   1.000000   1.000000
   12      -15.810401    -15.810411   1.000000   1.000000
   13      -15.797017    -15.797027   1.000000   1.000000
   14      -15.759140    -15.759147   1.000000   1.000000
   15       -5.679080     -5.679085   1.000000   1.000000
   16       -5.523163     -5.523170   1.000000   1.000000
   17       -3.647151     -3.647153   1.000000   1.000000
   18       -3.587580     -3.587582   1.000000   1.000000
   19       -3.403968     -3.403972   1.000000   1.000000
   20       -3.322421     -3.322427   1.000000   1.000000
   21       -3.142141     -3.142147   1.000000   1.000000
   22       -3.043332     -3.043338   1.000000   1.000000
   23       -1.296281     -1.296277   1.000000   1.000000
   24       -1.168664     -1.168660   1.000000   1.000000
   25       -1.139282     -1.139281   1.000000   1.000000
   26       -0.932952     -0.932950   1.000000   1.000000
   27       -0.811074     -0.811074   1.000000   1.000000
   28       -0.602345     -0.602341   1.000000   1.000000
   29       -0.520305     -0.520303   1.000000   1.000000
   30       -0.096556     -0.096557   1.000000   1.000000
   31        0.080817      0.080815   1.000000   1.000000
   32        0.178925      0.178925   1.000000   1.000000
   33        0.589175      0.589182   1.000000   1.000000
   34        0.638011      0.638016   1.000000   1.000000
   35        0.682362      0.682371   1.000000   1.000000
   36        0.822250      0.822260   1.000000   1.000000
   37        0.999147      0.999149   1.000000   1.000000
   38        1.083481      1.083487   1.000000   1.000000
   39        7.273871      7.273890   0.000000   0.000000
   40        9.342902      9.343237   0.000000   0.000000
   41        9.751893      9.752211   0.000000   0.000000
   42       10.019624     10.019727   0.000000   0.000000
   43       10.410700     10.410723   0.000000   0.000000
   44       10.548885     10.548888   0.000000   0.000000
   45       10.989615     10.989651   0.000000   0.000000
   46       11.255493     11.253610   0.000000   0.000000
   47       11.571714     11.577290   0.000000   0.000000
   48       12.169402     12.175526   0.000000   0.000000
   49       12.634060     12.647705   0.000000   0.000000
   50       13.171366     13.109762   0.000000   0.000000
   51       13.310165     13.319711   0.000000   0.000000
   52       13.402652     13.720375   0.000000   0.000000
 
  0.1428571E+00  0.1666667E+00  0.0000000E+00  0.1904762E-01
    1      -41.281375    -41.281170   1.000000   1.000000
    2      -41.280865    -41.280660   1.000000   1.000000
    3      -40.957881    -40.957771   1.000000   1.000000
    4      -40.950523    -40.950412   1.000000   1.000000
    5      -40.949843    -40.949732   1.000000   1.000000
    6      -40.942495    -40.942384   1.000000   1.000000
    7      -18.402733    -18.402744   1.000000   1.000000
    8      -18.241269    -18.241281   1.000000   1.000000
    9      -15.904530    -15.904538   1.000000   1.000000
   10      -15.891158    -15.891167   1.000000   1.000000
   11      -15.847935    -15.847942   1.000000   1.000000
   12      -15.816989    -15.816999   1.000000   1.000000
   13      -15.802594    -15.802604   1.000000   1.000000
   14      -15.777026    -15.777033   1.000000   1.000000
   15       -5.690098     -5.690104   1.000000   1.000000
   16       -5.526513     -5.526521   1.000000   1.000000
   17       -3.546726     -3.546728   1.000000   1.000000
   18       -3.499127     -3.499130   1.000000   1.000000
   19       -3.365016     -3.365021   1.000000   1.000000
   20       -3.301771     -3.301776   1.000000   1.000000
   21       -3.137341     -3.137347   1.000000   1.000000
   22       -3.045263     -3.045269   1.000000   1.000000
   23       -1.336178     -1.336174   1.000000   1.000000
   24       -1.185759     -1.185756   1.000000   1.000000
   25       -1.173328     -1.173327   1.000000   1.000000
   26       -0.974141     -0.974139   1.000000   1.000000
   27       -0.837826     -0.837824   1.000000   1.000000
   28       -0.551252     -0.551249   1.000000   1.000000
   29       -0.506181     -0.506179   1.000000   1.000000
   30       -0.177190     -0.177190   1.000000   1.000000
   31        0.044961      0.044962   1.000000   1.000000
   32        0.048955      0.048953   1.000000   1.000000
   33        0.627513      0.627518   1.000000   1.000000
   34        0.667754      0.667761   1.000000   1.000000
   35        0.726781      0.726789   1.000000   1.000000
   36        0.846750      0.846758   1.000000   1.000000
   37        0.992315      0.992317   1.000000   1.000000
   38        1.081217      1.081223   1.000000   1.000000
   39        7.451970      7.451988   0.000000   0.000000
   40        9.319120      9.319181   0.000000   0.000000
   41        9.373506      9.373401   0.000000   0.000000
   42       10.042297     10.042339   0.000000   0.000000
   43       10.417268     10.417302   0.000000   0.000000
   44       10.675525     10.675441   0.000000   0.000000
   45       10.898470     10.898101   0.000000   0.000000
   46       11.188769     11.188751   0.000000   0.000000
   47       11.737014     11.736527   0.000000   0.000000
   48       12.129175     12.127469   0.000000   0.000000
   49       12.326085     12.324048   0.000000   0.000000
   50       13.027238     13.096349   0.000000   0.000000
   51       13.108150     13.306696   0.000000   0.000000
   52       13.700352     13.791005   0.000000   0.000000
 
  0.2857143E+00  0.1666667E+00  0.0000000E+00  0.1904762E-01
    1      -41.281245    -41.281040   1.000000   1.000000
    2      -41.280874    -41.280669   1.000000   1.000000
    3      -40.956808    -40.956697   1.000000   1.000000
    4      -40.951697    -40.951586   1.000000   1.000000
    5      -40.948696    -40.948586   1.000000   1.000000
    6      -40.943604    -40.943493   1.000000   1.000000
    7      -18.362001    -18.362012   1.000000   1.000000
    8      -18.248187    -18.248199   1.000000   1.000000
    9      -15.915334    -15.915341   1.000000   1.000000
   10      -15.879034    -15.879044   1.000000   1.000000
   11      -15.854609    -15.854617   1.000000   1.000000
   12      -15.843655    -15.843663   1.000000   1.000000
   13      -15.817807    -15.817817   1.000000   1.000000
   14      -15.809063    -15.809072   1.000000   1.000000
   15       -5.698308     -5.698314   1.000000   1.000000
   16       -5.553016     -5.553023   1.000000   1.000000
   17       -3.409113     -3.409117   1.000000   1.000000
   18       -3.297237     -3.297242   1.000000   1.000000
   19       -3.245267     -3.245273   1.000000   1.000000
   20       -3.179658     -3.179662   1.000000   1.000000
   21       -3.059276     -3.059283   1.000000   1.000000
   22       -3.057898     -3.057903   1.000000   1.000000
   23       -1.402205     -1.402201   1.000000   1.000000
   24       -1.260635     -1.260633   1.000000   1.000000
   25       -1.225330     -1.225326   1.000000   1.000000
   26       -1.080837     -1.080835   1.000000   1.000000
   27       -0.917508     -0.917505   1.000000   1.000000
   28       -0.550141     -0.550136   1.000000   1.000000
   29       -0.446077     -0.446078   1.000000   1.000000
   30       -0.431488     -0.431487   1.000000   1.000000
   31       -0.125843     -0.125844   1.000000   1.000000
   32       -0.033820     -0.033821   1.000000   1.000000
   33        0.668508      0.668513   1.000000   1.000000
   34        0.788388      0.788394   1.000000   1.000000
   35        0.814911      0.814919   1.000000   1.000000
   36        0.907278      0.907285   1.000000   1.000000
   37        0.947290      0.947294   1.000000   1.000000
   38        1.091912      1.091917   1.000000   1.000000
   39        7.905801      7.905816   0.000000   0.000000
   40        8.924216      8.924371   0.000000   0.000000
   41        9.345787      9.345861   0.000000   0.000000
   42        9.961246      9.961042   0.000000   0.000000
   43       10.389771     10.389974   0.000000   0.000000
   44       10.444628     10.444365   0.000000   0.000000
   45       10.721991     10.722293   0.000000   0.000000
   46       10.998048     10.998913   0.000000   0.000000
   47       11.753180     11.753651   0.000000   0.000000
   48       12.096625     12.096141   0.000000   0.000000
   49       12.401705     12.408835   0.000000   0.000000
   50       12.793771     12.789879   0.000000   0.000000
   51       13.064654     13.224852   0.000000   0.000000
   52       13.729217     13.771035   0.000000   0.000000
 
  0.4285714E+00  0.1666667E+00  0.0000000E+00  0.1904762E-01
    1      -41.281074    -41.280870   1.000000   1.000000
    2      -41.280931    -41.280726   1.000000   1.000000
    3      -40.955195    -40.955084   1.000000   1.000000
    4      -40.953356    -40.953245   1.000000   1.000000
    5      -40.947050    -40.946939   1.000000   1.000000
    6      -40.945223    -40.945112   1.000000   1.000000
    7      -18.311918    -18.311930   1.000000   1.000000
    8      -18.270619    -18.270631   1.000000   1.000000
    9      -15.918112    -15.918119   1.000000   1.000000
   10      -15.892752    -15.892759   1.000000   1.000000
   11      -15.860527    -15.860536   1.000000   1.000000
   12      -15.843788    -15.843797   1.000000   1.000000
   13      -15.838734    -15.838744   1.000000   1.000000
   14      -15.829205    -15.829214   1.000000   1.000000
   15       -5.671024     -5.671031   1.000000   1.000000
   16       -5.611296     -5.611304   1.000000   1.000000
   17       -3.323669     -3.323674   1.000000   1.000000
   18       -3.269430     -3.269435   1.000000   1.000000
   19       -3.169661     -3.169667   1.000000   1.000000
   20       -3.100611     -3.100617   1.000000   1.000000
   21       -2.898054     -2.898058   1.000000   1.000000
   22       -2.832117     -2.832123   1.000000   1.000000
   23       -1.417580     -1.417577   1.000000   1.000000
   24       -1.359641     -1.359638   1.000000   1.000000
   25       -1.246316     -1.246312   1.000000   1.000000
   26       -1.200525     -1.200521   1.000000   1.000000
   27       -1.027046     -1.027041   1.000000   1.000000
   28       -0.948167     -0.948161   1.000000   1.000000
   29       -0.367878     -0.367879   1.000000   1.000000
   30       -0.288948     -0.288948   1.000000   1.000000
   31       -0.251176     -0.251177   1.000000   1.000000
   32       -0.150722     -0.150723   1.000000   1.000000
   33        0.730406      0.730410   1.000000   1.000000
   34        0.808973      0.808977   1.000000   1.000000
   35        0.899083      0.899090   1.000000   1.000000
   36        0.938959      0.938965   1.000000   1.000000
   37        0.984777      0.984782   1.000000   1.000000
   38        1.071059      1.071064   1.000000   1.000000
   39        8.410452      8.410478   0.000000   0.000000
   40        8.696034      8.695976   0.000000   0.000000
   41        9.470642      9.470730   0.000000   0.000000
   42        9.816041      9.816096   0.000000   0.000000
   43       10.050963     10.050997   0.000000   0.000000
   44       10.230116     10.230139   0.000000   0.000000
   45       10.539380     10.539235   0.000000   0.000000
   46       10.741945     10.742077   0.000000   0.000000
   47       11.876404     11.877426   0.000000   0.000000
   48       12.087983     12.089655   0.000000   0.000000
   49       12.523517     12.523731   0.000000   0.000000
   50       12.723801     12.738757   0.000000   0.000000
   51       13.165140     13.170540   0.000000   0.000000
   52       13.608204     13.542424   0.000000   0.000000
 
  0.0000000E+00  0.3333333E+00  0.0000000E+00  0.9523810E-02
    1      -41.281339    -41.281134   1.000000   1.000000
    2      -41.280885    -41.280680   1.000000   1.000000
    3      -40.958411    -40.958300   1.000000   1.000000
    4      -40.950225    -40.950115   1.000000   1.000000
    5      -40.950043    -40.949933   1.000000   1.000000
    6      -40.942191    -40.942080   1.000000   1.000000
    7      -18.392564    -18.392575   1.000000   1.000000
    8      -18.255647    -18.255659   1.000000   1.000000
    9      -15.926251    -15.926260   1.000000   1.000000
   10      -15.882383    -15.882392   1.000000   1.000000
   11      -15.839260    -15.839266   1.000000   1.000000
   12      -15.811977    -15.811987   1.000000   1.000000
   13      -15.809733    -15.809744   1.000000   1.000000
   14      -15.764913    -15.764919   1.000000   1.000000
   15       -5.632848     -5.632854   1.000000   1.000000
   16       -5.529168     -5.529175   1.000000   1.000000
   17       -3.645309     -3.645310   1.000000   1.000000
   18       -3.553863     -3.553865   1.000000   1.000000
   19       -3.347433     -3.347437   1.000000   1.000000
   20       -3.345326     -3.345330   1.000000   1.000000
   21       -3.037702     -3.037709   1.000000   1.000000
   22       -2.998951     -2.998958   1.000000   1.000000
   23       -1.300660     -1.300656   1.000000   1.000000
   24       -1.193116     -1.193113   1.000000   1.000000
   25       -1.145482     -1.145481   1.000000   1.000000
   26       -1.010454     -1.010451   1.000000   1.000000
   27       -0.767130     -0.767132   1.000000   1.000000
   28       -0.574827     -0.574825   1.000000   1.000000
   29       -0.495858     -0.495857   1.000000   1.000000
   30       -0.319056     -0.319053   1.000000   1.000000
   31        0.057768      0.057766   1.000000   1.000000
   32        0.082432      0.082433   1.000000   1.000000
   33        0.567314      0.567321   1.000000   1.000000
   34        0.661396      0.661406   1.000000   1.000000
   35        0.683585      0.683590   1.000000   1.000000
   36        0.851299      0.851307   1.000000   1.000000
   37        0.928079      0.928083   1.000000   1.000000
   38        1.147015      1.147019   1.000000   1.000000
   39        7.875285      7.875299   0.000000   0.000000
   40        9.073927      9.073918   0.000000   0.000000
   41        9.315579      9.315607   0.000000   0.000000
   42        9.956702      9.956777   0.000000   0.000000
   43       10.272174     10.272177   0.000000   0.000000
   44       10.934498     10.934425   0.000000   0.000000
   45       11.115340     11.115165   0.000000   0.000000
   46       11.214180     11.214609   0.000000   0.000000
   47       11.396777     11.396009   0.000000   0.000000
   48       12.091217     12.093450   0.000000   0.000000
   49       12.457641     12.458944   0.000000   0.000000
   50       12.869319     12.895141   0.000000   0.000000
   51       13.120419     13.136210   0.000000   0.000000
   52       13.463234     13.498002   0.000000   0.000000
 
  0.1428571E+00  0.3333333E+00  0.0000000E+00  0.1904762E-01
    1      -41.281284    -41.281079   1.000000   1.000000
    2      -41.280877    -41.280673   1.000000   1.000000
    3      -40.958028    -40.957918   1.000000   1.000000
    4      -40.950503    -40.950392   1.000000   1.000000
    5      -40.949806    -40.949695   1.000000   1.000000
    6      -40.942536    -40.942425   1.000000   1.000000
    7      -18.378590    -18.378601   1.000000   1.000000
    8      -18.254206    -18.254218   1.000000   1.000000
    9      -15.926370    -15.926379   1.000000   1.000000
   10      -15.879535    -15.879544   1.000000   1.000000
   11      -15.848036    -15.848043   1.000000   1.000000
   12      -15.820828    -15.820838   1.000000   1.000000
   13      -15.816042    -15.816052   1.000000   1.000000
   14      -15.779409    -15.779416   1.000000   1.000000
   15       -5.642513     -5.642519   1.000000   1.000000
   16       -5.538113     -5.538120   1.000000   1.000000
   17       -3.539109     -3.539111   1.000000   1.000000
   18       -3.448962     -3.448964   1.000000   1.000000
   19       -3.332073     -3.332078   1.000000   1.000000
   20       -3.314370     -3.314374   1.000000   1.000000
   21       -3.040155     -3.040162   1.000000   1.000000
   22       -3.010717     -3.010723   1.000000   1.000000
   23       -1.320966     -1.320963   1.000000   1.000000
   24       -1.195745     -1.195742   1.000000   1.000000
   25       -1.147260     -1.147259   1.000000   1.000000
   26       -1.026855     -1.026853   1.000000   1.000000
   27       -0.803744     -0.803745   1.000000   1.000000
   28       -0.561334     -0.561332   1.000000   1.000000
   29       -0.552958     -0.552955   1.000000   1.000000
   30       -0.349198     -0.349196   1.000000   1.000000
   31       -0.027218     -0.027217   1.000000   1.000000
   32        0.022554      0.022553   1.000000   1.000000
   33        0.597861      0.597867   1.000000   1.000000
   34        0.687337      0.687346   1.000000   1.000000
   35        0.715892      0.715897   1.000000   1.000000