 running on   12 total cores
 distrk:  each k-point on   12 cores,    1 groups
 distr:  one band on    6 cores,    2 groups
 using from now: INCAR     
 vasp.6.1.2 22Jul20 (build Mar 20 2021 11:25:07) complex                        
  
 POSCAR found type information on POSCAR LiP O 
 POSCAR found :  3 types and      16 ions
 scaLAPACK will be used
 LDA part: xc-table for Pade appr. of Perdew
 -----------------------------------------------------------------------------
|                                                                             |
|           W    W    AA    RRRRR   N    N  II  N    N   GGGG   !!!           |
|           W    W   A  A   R    R  NN   N  II  NN   N  G    G  !!!           |
|           W    W  A    A  R    R  N N  N  II  N N  N  G       !!!           |
|           W WW W  AAAAAA  RRRRR   N  N N  II  N  N N  G  GGG   !            |
|           WW  WW  A    A  R   R   N   NN  II  N   NN  G    G                |
|           W    W  A    A  R    R  N    N  II  N    N   GGGG   !!!           |
|                                                                             |
|     The determination of the symmetry of your systems shows a strong        |
|     dependence on the tolerance parameter SYMPREC. This is often the        |
|     result of "noise" in the structural parameters (lattice vectors         |
|     and/or ionic positions). Set NWRITE=3 for more details.                 |
|                                                                             |
 -----------------------------------------------------------------------------

 generate k-points for:    7    6    5
 POSCAR, INCAR and KPOINTS ok, starting setup
 FFT: planning ...
 WAVECAR not read
 entering main loop
       N       E                     dE             d eps       ncg     rms          rms(c)
DAV:   1     0.627060341575E+03    0.62706E+03   -0.36946E+04  9984   0.153E+03
DAV:   2    -0.426328309727E+02   -0.66969E+03   -0.63608E+03 11688   0.399E+02
DAV:   3    -0.102979311103E+03   -0.60346E+02   -0.60043E+02 13940   0.113E+02
DAV:   4    -0.108586985022E+03   -0.56077E+01   -0.55840E+01 17688   0.288E+01
DAV:   5    -0.109122183946E+03   -0.53520E+00   -0.53509E+00 14096   0.592E+00    0.368E+01
RMM:   6    -0.992110883472E+02    0.99111E+01   -0.42541E+01 10966   0.243E+01    0.148E+01
RMM:   7    -0.100318779171E+03   -0.11077E+01   -0.47276E+00 14443   0.866E+00    0.780E+00
RMM:   8    -0.100540900552E+03   -0.22212E+00   -0.10961E+00 16495   0.453E+00    0.389E+00
RMM:   9    -0.100611680584E+03   -0.70780E-01   -0.40814E-01 16484   0.325E+00    0.976E-01
RMM:  10    -0.100647464973E+03   -0.35784E-01   -0.28559E-01 18668   0.192E+00    0.376E-01
RMM:  11    -0.100664951129E+03   -0.17486E-01   -0.13846E-01 19274   0.121E+00    0.319E-01
RMM:  12    -0.100672043000E+03   -0.70919E-02   -0.52307E-02 19377   0.753E-01    0.216E-01
RMM:  13    -0.100674538961E+03   -0.24960E-02   -0.19059E-02 18887   0.518E-01    0.108E-01
RMM:  14    -0.100675803277E+03   -0.12643E-02   -0.10805E-02 19060   0.372E-01    0.308E-02
RMM:  15    -0.100676348906E+03   -0.54563E-03   -0.50977E-03 18755   0.234E-01    0.347E-02
RMM:  16    -0.100676568802E+03   -0.21990E-03   -0.21796E-03 18349   0.155E-01    0.264E-02
RMM:  17    -0.100676647905E+03   -0.79103E-04   -0.87847E-04 17996   0.110E-01    0.138E-02
RMM:  18    -0.100676699052E+03   -0.51147E-04   -0.51814E-04 17805   0.749E-02    0.106E-02
RMM:  19    -0.100676718688E+03   -0.19636E-04   -0.18946E-04 16824   0.509E-02    0.117E-02
RMM:  20    -0.100676731622E+03   -0.12934E-04   -0.97254E-05 16020   0.394E-02    0.277E-02
RMM:  21    -0.100676728522E+03    0.30998E-05   -0.28378E-05 12963   0.309E-02
   1 F= -.10067673E+03 E0= -.10067673E+03  d E =0.000000E+00  mag=     0.0000
