   6   6   1   0
  0.1283026E+02  0.4832806E-09  0.4832806E-09  0.4832806E-09  0.5000000E-15
  1.000000000000000E-004
  CAR 
 unknown system                          
     12.62527914    -21.44979212  301      2.43115366      1.00000000
    -21.450  0.0000E+00  0.0000E+00  0.0000E+00  0.0000E+00
    -21.336  0.0000E+00  0.0000E+00  0.0000E+00  0.0000E+00
    -21.223  0.0000E+00  0.0000E+00  0.0000E+00  0.0000E+00
    -21.109  0.0000E+00  0.0000E+00  0.0000E+00  0.0000E+00
    -20.995  0.0000E+00  0.0000E+00  0.0000E+00  0.0000E+00
    -20.882  0.0000E+00  0.0000E+00  0.0000E+00  0.0000E+00
    -20.768  0.0000E+00  0.0000E+00  0.0000E+00  0.0000E+00
    -20.655  0.0000E+00  0.0000E+00  0.0000E+00  0.0000E+00
    -20.541  0.0000E+00  0.0000E+00  0.0000E+00  0.0000E+00
    -20.428  0.0000E+00  0.0000E+00  0.0000E+00  0.0000E+00
    -20.314  0.0000E+00  0.0000E+00  0.0000E+00  0.0000E+00
    -20.200  0.0000E+00  0.0000E+00  0.0000E+00  0.0000E+00
    -20.087  0.0000E+00  0.0000E+00  0.0000E+00  0.0000E+00
    -19.973  0.0000E+00  0.0000E+00  0.0000E+00  0.0000E+00
    -19.860  0.3649E-02  0.3649E-02  0.5756E-04  0.5757E-04
    -19.746  0.1211E-01  0.1211E-01  0.9045E-03  0.9046E-03
    -19.632  0.1813E-01  0.1813E-01  0.2889E-02  0.2889E-02
    -19.519  0.1275E-01  0.1275E-01  0.4768E-02  0.4768E-02
    -19.405  0.1016E-01  0.1016E-01  0.6055E-02  0.6055E-02
    -19.292  0.9003E-02  0.9003E-02  0.7129E-02  0.7129E-02
    -19.178  0.8772E-02  0.8772E-02  0.8115E-02  0.8115E-02
    -19.065  0.1281E-01  0.1281E-01  0.9330E-02  0.9330E-02
    -18.951  0.1110E-02  0.1110E-02  0.1009E-01  0.1009E-01
    -18.837  0.9272E-03  0.9272E-03  0.1011E-01  0.1011E-01
    -18.724  0.1255E-01  0.1255E-01  0.1077E-01  0.1077E-01
    -18.610  0.7452E-02  0.7452E-02  0.1187E-01  0.1187E-01
    -18.497  0.6559E-02  0.6559E-02  0.1265E-01  0.1265E-01
    -18.383  0.6558E-02  0.6558E-02  0.1339E-01  0.1339E-01
    -18.269  0.6700E-02  0.6700E-02  0.1414E-01  0.1414E-01
    -18.156  0.7078E-02  0.7078E-02  0.1492E-01  0.1492E-01
    -18.042  0.7703E-02  0.7703E-02  0.1576E-01  0.1576E-01
    -17.929  0.8928E-02  0.8928E-02  0.1669E-01  0.1669E-01
    -17.815  0.1268E-01  0.1268E-01  0.1788E-01  0.1788E-01
    -17.702  0.8185E-02  0.8184E-02  0.2010E-01  0.2010E-01
    -17.588  0.0000E+00  0.0000E+00  0.2020E-01  0.2020E-01
    -17.474  0.0000E+00  0.0000E+00  0.2020E-01  0.2020E-01
    -17.361  0.0000E+00  0.0000E+00  0.2020E-01  0.2020E-01
    -17.247  0.0000E+00  0.0000E+00  0.2020E-01  0.2020E-01
    -17.134  0.0000E+00  0.0000E+00  0.2020E-01  0.2020E-01
    -17.020  0.0000E+00  0.0000E+00  0.2020E-01  0.2020E-01
    -16.906  0.0000E+00  0.0000E+00  0.2020E-01  0.2020E-01
    -16.793  0.0000E+00  0.0000E+00  0.2020E-01  0.2020E-01
    -16.679  0.0000E+00  0.0000E+00  0.2020E-01  0.2020E-01
    -16.566  0.0000E+00  0.0000E+00  0.2020E-01  0.2020E-01
    -16.452  0.0000E+00  0.0000E+00  0.2020E-01  0.2020E-01
    -16.339  0.0000E+00  0.0000E+00  0.2020E-01  0.2020E-01
    -16.225  0.0000E+00  0.0000E+00  0.2020E-01  0.2020E-01
    -16.111  0.0000E+00  0.0000E+00  0.2020E-01  0.2020E-01
    -15.998  0.0000E+00  0.0000E+00  0.2020E-01  0.2020E-01
    -15.884  0.0000E+00  0.0000E+00  0.2020E-01  0.2020E-01
    -15.771  0.0000E+00  0.0000E+00  0.2020E-01  0.2020E-01
    -15.657  0.0000E+00  0.0000E+00  0.2020E-01  0.2020E-01
    -15.543  0.5078E-04  0.5079E-04  0.2020E-01  0.2020E-01
    -15.430  0.1292E-02  0.1292E-02  0.2027E-01  0.2027E-01
    -15.316  0.1723E-02  0.1723E-02  0.2043E-01  0.2043E-01
    -15.203  0.2546E-02  0.2546E-02  0.2068E-01  0.2068E-01
    -15.089  0.3156E-02  0.3156E-02  0.2100E-01  0.2100E-01
    -14.976  0.3960E-02  0.3960E-02  0.2140E-01  0.2140E-01
    -14.862  0.4961E-02  0.4961E-02  0.2191E-01  0.2191E-01
    -14.748  0.6287E-02  0.6287E-02  0.2254E-01  0.2254E-01
    -14.635  0.8300E-02  0.8300E-02  0.2335E-01  0.2335E-01
    -14.521  0.1212E-01  0.1212E-01  0.2449E-01  0.2449E-01
    -14.408  0.1157E-01  0.1157E-01  0.2585E-01  0.2585E-01
    -14.294  0.1098E-01  0.1098E-01  0.2713E-01  0.2713E-01
    -14.180  0.1017E-01  0.1017E-01  0.2834E-01  0.2834E-01
    -14.067  0.1010E-01  0.1010E-01  0.2948E-01  0.2948E-01
    -13.953  0.1608E-02  0.1608E-02  0.3025E-01  0.3025E-01
    -13.840  0.1745E-04  0.1744E-04  0.3030E-01  0.3030E-01
    -13.726  0.2236E-04  0.2237E-04  0.3030E-01  0.3030E-01
    -13.613  0.6599E-02  0.6599E-02  0.3066E-01  0.3066E-01
    -13.499  0.9105E-02  0.9105E-02  0.3163E-01  0.3163E-01
    -13.385  0.1043E-01  0.1043E-01  0.3278E-01  0.3278E-01
    -13.272  0.7818E-02  0.7818E-02  0.3377E-01  0.3377E-01
    -13.158  0.7210E-02  0.7210E-02  0.3462E-01  0.3462E-01
    -13.045  0.7132E-02  0.7132E-02  0.3543E-01  0.3543E-01
    -12.931  0.7415E-02  0.7415E-02  0.3625E-01  0.3625E-01
    -12.817  0.8324E-02  0.8324E-02  0.3714E-01  0.3714E-01
    -12.704  0.1136E-01  0.1136E-01  0.3821E-01  0.3821E-01
    -12.590  0.1503E-01  0.1503E-01  0.4003E-01  0.4003E-01
    -12.477  0.0000E+00  0.0000E+00  0.4040E-01  0.4040E-01
    -12.363  0.0000E+00  0.0000E+00  0.4040E-01  0.4040E-01
    -12.250  0.0000E+00  0.0000E+00  0.4040E-01  0.4040E-01
    -12.136  0.0000E+00  0.0000E+00  0.4040E-01  0.4040E-01
    -12.022  0.0000E+00  0.0000E+00  0.4040E-01  0.4040E-01
    -11.909  0.0000E+00  0.0000E+00  0.4040E-01  0.4040E-01
    -11.795  0.0000E+00  0.0000E+00  0.4040E-01  0.4040E-01
    -11.682  0.0000E+00  0.0000E+00  0.4040E-01  0.4040E-01
    -11.568  0.0000E+00  0.0000E+00  0.4040E-01  0.4040E-01
    -11.454  0.2035E-04  0.2035E-04  0.4040E-01  0.4040E-01
    -11.341  0.1336E-03  0.1336E-03  0.4041E-01  0.4041E-01
    -11.227  0.3585E-03  0.3585E-03  0.4044E-01  0.4044E-01
    -11.114  0.6138E-03  0.6138E-03  0.4050E-01  0.4050E-01
    -11.000  0.7057E-03  0.7057E-03  0.4057E-01  0.4057E-01
    -10.887  0.8656E-03  0.8656E-03  0.4066E-01  0.4066E-01
    -10.773  0.1096E-02  0.1096E-02  0.4077E-01  0.4077E-01
    -10.659  0.1312E-02  0.1312E-02  0.4091E-01  0.4091E-01
    -10.546  0.1548E-02  0.1548E-02  0.4107E-01  0.4107E-01
    -10.432  0.1773E-02  0.1773E-02  0.4126E-01  0.4126E-01
    -10.319  0.2067E-02  0.2067E-02  0.4148E-01  0.4148E-01
    -10.205  0.2389E-02  0.2389E-02  0.4173E-01  0.4173E-01
    -10.091  0.2819E-02  0.2819E-02  0.4202E-01  0.4202E-01
     -9.978  0.3327E-02  0.3327E-02  0.4237E-01  0.4237E-01
     -9.864  0.4034E-02  0.4034E-02  0.4278E-01  0.4278E-01
     -9.751  0.4707E-02  0.4707E-02  0.4329E-01  0.4329E-01
     -9.637  0.4918E-02  0.4918E-02  0.4384E-01  0.4384E-01
     -9.524  0.5479E-02  0.5479E-02  0.4443E-01  0.4443E-01
     -9.410  0.6547E-02  0.6547E-02  0.4510E-01  0.4510E-01
     -9.296  0.6452E-02  0.6452E-02  0.4586E-01  0.4586E-01
     -9.183  0.6265E-02  0.6265E-02  0.4658E-01  0.4658E-01
     -9.069  0.6092E-02  0.6092E-02  0.4728E-01  0.4728E-01
     -8.956  0.5908E-02  0.5908E-02  0.4797E-01  0.4797E-01
     -8.842  0.5525E-02  0.5525E-02  0.4862E-01  0.4862E-01
     -8.728  0.5643E-02  0.5643E-02  0.4925E-01  0.4925E-01
     -8.615  0.4638E-02  0.4638E-02  0.4985E-01  0.4985E-01
     -8.501  0.2093E-02  0.2093E-02  0.5022E-01  0.5022E-01
     -8.388  0.1026E-02  0.1026E-02  0.5040E-01  0.5040E-01
     -8.274  0.3889E-03  0.3889E-03  0.5048E-01  0.5048E-01
     -8.161  0.6065E-04  0.6064E-04  0.5050E-01  0.5050E-01
     -8.047  0.1163E-02  0.1163E-02  0.5055E-01  0.5055E-01
     -7.933  0.3014E-02  0.3014E-02  0.5083E-01  0.5083E-01
     -7.820  0.3928E-02  0.3928E-02  0.5121E-01  0.5121E-01
     -7.706  0.5421E-02  0.5421E-02  0.5174E-01  0.5174E-01
     -7.593  0.6374E-02  0.6374E-02  0.5242E-01  0.5242E-01
     -7.479  0.7381E-02  0.7381E-02  0.5320E-01  0.5320E-01
     -7.365  0.8156E-02  0.8156E-02  0.5408E-01  0.5408E-01
     -7.252  0.9459E-02  0.9459E-02  0.5508E-01  0.5508E-01
     -7.138  0.8436E-02  0.8436E-02  0.5613E-01  0.5613E-01
     -7.025  0.7735E-02  0.7735E-02  0.5704E-01  0.5704E-01
     -6.911  0.7801E-02  0.7801E-02  0.5791E-01  0.5791E-01
     -6.798  0.9275E-02  0.9276E-02  0.5884E-01  0.5884E-01
     -6.684  0.9862E-02  0.9862E-02  0.6002E-01  0.6002E-01
     -6.570  0.9520E-03  0.9519E-03  0.6059E-01  0.6059E-01
     -6.457  0.0000E+00  0.0000E+00  0.6061E-01  0.6061E-01
     -6.343  0.8605E-03  0.8606E-03  0.6063E-01  0.6063E-01
     -6.230  0.3864E-02  0.3864E-02  0.6101E-01  0.6101E-01
     -6.116  0.4107E-02  0.4107E-02  0.6146E-01  0.6146E-01
     -6.002  0.5177E-02  0.5177E-02  0.6198E-01  0.6198E-01
     -5.889  0.7271E-02  0.7271E-02  0.6268E-01  0.6268E-01
     -5.775  0.9877E-02  0.9877E-02  0.6366E-01  0.6366E-01
     -5.662  0.1646E-01  0.1646E-01  0.6518E-01  0.6518E-01
     -5.548  0.1249E-01  0.1249E-01  0.6663E-01  0.6663E-01
     -5.435  0.1811E-01  0.1811E-01  0.6849E-01  0.6849E-01
     -5.321  0.1616E-01  0.1616E-01  0.7033E-01  0.7033E-01
     -5.207  0.2415E-01  0.2415E-01  0.7254E-01  0.7254E-01
     -5.094  0.2941E-01  0.2941E-01  0.7632E-01  0.7632E-01
     -4.980  0.1319E-01  0.1319E-01  0.7873E-01  0.7873E-01
     -4.867  0.6589E-02  0.6589E-02  0.7980E-01  0.7980E-01
     -4.753  0.3949E-02  0.3949E-02  0.8039E-01  0.8039E-01
     -4.639  0.1871E-02  0.1871E-02  0.8070E-01  0.8070E-01
     -4.526  0.4646E-04  0.4645E-04  0.8081E-01  0.8081E-01
     -4.412  0.0000E+00  0.0000E+00  0.8081E-01  0.8081E-01
     -4.299  0.0000E+00  0.0000E+00  0.8081E-01  0.8081E-01
     -4.185  0.0000E+00  0.0000E+00  0.8081E-01  0.8081E-01
     -4.072  0.0000E+00  0.0000E+00  0.8081E-01  0.8081E-01
     -3.958  0.0000E+00  0.0000E+00  0.8081E-01  0.8081E-01
     -3.844  0.0000E+00  0.0000E+00  0.8081E-01  0.8081E-01
     -3.731  0.0000E+00  0.0000E+00  0.8081E-01  0.8081E-01
     -3.617  0.0000E+00  0.0000E+00  0.8081E-01  0.8081E-01
     -3.504  0.0000E+00  0.0000E+00  0.8081E-01  0.8081E-01
     -3.390  0.0000E+00  0.0000E+00  0.8081E-01  0.8081E-01
     -3.276  0.0000E+00  0.0000E+00  0.8081E-01  0.8081E-01
     -3.163  0.0000E+00  0.0000E+00  0.8081E-01  0.8081E-01
     -3.049  0.0000E+00  0.0000E+00  0.8081E-01  0.8081E-01
     -2.936  0.4073E-02  0.4073E-02  0.8089E-01  0.8089E-01
     -2.822  0.1264E-01  0.1264E-01  0.8179E-01  0.8179E-01
     -2.709  0.1702E-01  0.1702E-01  0.8370E-01  0.8370E-01
     -2.595  0.2593E-01  0.2593E-01  0.8597E-01  0.8597E-01
     -2.481  0.2390E-01  0.2390E-01  0.8866E-01  0.8866E-01
     -2.368  0.1111E-01  0.1111E-01  0.9117E-01  0.9117E-01
     -2.254  0.1728E-01  0.1728E-01  0.9254E-01  0.9254E-01
     -2.141  0.1567E-01  0.1567E-01  0.9447E-01  0.9447E-01
     -2.027  0.2294E-01  0.2294E-01  0.9650E-01  0.9650E-01
     -1.913  0.2440E-01  0.2440E-01  0.9927E-01  0.9927E-01
     -1.800  0.1832E-01  0.1832E-01  0.1018E+00  0.1018E+00
     -1.686  0.1541E-01  0.1541E-01  0.1036E+00  0.1036E+00
     -1.573  0.1907E-01  0.1907E-01  0.1056E+00  0.1056E+00
     -1.459  0.1688E-01  0.1688E-01  0.1076E+00  0.1076E+00
     -1.346  0.1011E-01  0.1011E-01  0.1092E+00  0.1092E+00
     -1.232  0.5180E-02  0.5180E-02  0.1100E+00  0.1100E+00
     -1.118  0.7074E-02  0.7074E-02  0.1106E+00  0.1106E+00
     -1.005  0.1739E-01  0.1739E-01  0.1123E+00  0.1123E+00
     -0.891  0.1587E-01  0.1587E-01  0.1141E+00  0.1141E+00
     -0.778  0.1481E-01  0.1481E-01  0.1159E+00  0.1159E+00
     -0.664  0.1554E-01  0.1554E-01  0.1178E+00  0.1178E+00
     -0.550  0.1052E-01  0.1052E-01  0.1193E+00  0.1193E+00
     -0.437  0.8109E-02  0.8109E-02  0.1203E+00  0.1203E+00
     -0.323  0.5063E-02  0.5063E-02  0.1212E+00  0.1212E+00
     -0.210  0.2550E-02  0.2550E-02  0.1215E+00  0.1215E+00
     -0.096  0.5646E-02  0.5646E-02  0.1219E+00  0.1219E+00
      0.018  0.1520E-01  0.1520E-01  0.1230E+00  0.1230E+00
      0.131  0.2135E-01  0.2135E-01  0.1251E+00  0.1251E+00
      0.245  0.3048E-01  0.3048E-01  0.1279E+00  0.1279E+00
      0.358  0.2294E-01  0.2294E-01  0.1320E+00  0.1320E+00
      0.472  0.2184E-01  0.2184E-01  0.1348E+00  0.1348E+00
      0.585  0.2761E-01  0.2761E-01  0.1379E+00  0.1379E+00
      0.699  0.2835E-01  0.2835E-01  0.1411E+00  0.1411E+00
      0.813  0.9344E-02  0.9344E-02  0.1430E+00  0.1430E+00
      0.926  0.1547E-01  0.1547E-01  0.1443E+00  0.1443E+00
      1.040  0.1497E-01  0.1497E-01  0.1464E+00  0.1464E+00
      1.153  0.1335E-01  0.1335E-01  0.1480E+00  0.1480E+00
      1.267  0.1448E-01  0.1448E-01  0.1496E+00  0.1496E+00
      1.381  0.1015E-01  0.1015E-01  0.1513E+00  0.1513E+00
      1.494  0.0000E+00  0.0000E+00  0.1515E+00  0.1515E+00
      1.608  0.1046E-02  0.1046E-02  0.1515E+00  0.1515E+00
      1.721  0.1471E-01  0.1471E-01  0.1523E+00  0.1523E+00
      1.835  0.1365E-01  0.1365E-01  0.1539E+00  0.1539E+00
      1.948  0.1936E-01  0.1936E-01  0.1555E+00  0.1555E+00
      2.062  0.1899E-01  0.1899E-01  0.1594E+00  0.1594E+00
      2.176  0.7928E-02  0.7928E-02  0.1608E+00  0.1608E+00
      2.289  0.3242E-02  0.3242E-02  0.1614E+00  0.1614E+00
      2.403  0.0000E+00  0.0000E+00  0.1616E+00  0.1616E+00
      2.516  0.0000E+00  0.0000E+00  0.1616E+00  0.1616E+00
      2.630  0.0000E+00  0.0000E+00  0.1616E+00  0.1616E+00
      2.744  0.0000E+00  0.0000E+00  0.1616E+00  0.1616E+00
      2.857  0.0000E+00  0.0000E+00  0.1616E+00  0.1616E+00
      2.971  0.0000E+00  0.0000E+00  0.1616E+00  0.1616E+00
      3.084  0.0000E+00  0.0000E+00  0.1616E+00  0.1616E+00
      3.198  0.0000E+00  0.0000E+00  0.1616E+00  0.1616E+00
      3.311  0.0000E+00  0.0000E+00  0.1616E+00  0.1616E+00
      3.425  0.0000E+00  0.0000E+00  0.1616E+00  0.1616E+00
      3.539  0.0000E+00  0.0000E+00  0.1616E+00  0.1616E+00
      3.652  0.0000E+00  0.0000E+00  0.1616E+00  0.1616E+00
      3.766  0.0000E+00  0.0000E+00  0.1616E+00  0.1616E+00
      3.879  0.0000E+00  0.0000E+00  0.1616E+00  0.1616E+00
      3.993  0.0000E+00  0.0000E+00  0.1616E+00  0.1616E+00
      4.107  0.0000E+00  0.0000E+00  0.1616E+00  0.1616E+00
      4.220  0.0000E+00  0.0000E+00  0.1616E+00  0.1616E+00
      4.334  0.0000E+00  0.0000E+00  0.1616E+00  0.1616E+00
      4.447  0.0000E+00  0.0000E+00  0.1616E+00  0.1616E+00
      4.561  0.0000E+00  0.0000E+00  0.1616E+00  0.1616E+00
      4.674  0.0000E+00  0.0000E+00  0.1616E+00  0.1616E+00
      4.788  0.0000E+00  0.0000E+00  0.1616E+00  0.1616E+00
      4.902  0.0000E+00  0.0000E+00  0.1616E+00  0.1616E+00
      5.015  0.0000E+00  0.0000E+00  0.1616E+00  0.1616E+00
      5.129  0.0000E+00  0.0000E+00  0.1616E+00  0.1616E+00
      5.242  0.0000E+00  0.0000E+00  0.1616E+00  0.1616E+00
      5.356  0.0000E+00  0.0000E+00  0.1616E+00  0.1616E+00
      5.470  0.0000E+00  0.0000E+00  0.1616E+00  0.1616E+00
      5.583  0.0000E+00  0.0000E+00  0.1616E+00  0.1616E+00
      5.697  0.0000E+00  0.0000E+00  0.1616E+00  0.1616E+00
      5.810  0.0000E+00  0.0000E+00  0.1616E+00  0.1616E+00
      5.924  0.0000E+00  0.0000E+00  0.1616E+00  0.1616E+00
      6.037  0.0000E+00  0.0000E+00  0.1616E+00  0.1616E+00
      6.151  0.0000E+00  0.0000E+00  0.1616E+00  0.1616E+00
      6.265  0.0000E+00  0.0000E+00  0.1616E+00  0.1616E+00
      6.378  0.0000E+00  0.0000E+00  0.1616E+00  0.1616E+00
      6.492  0.0000E+00  0.0000E+00  0.1616E+00  0.1616E+00
      6.605  0.0000E+00  0.0000E+00  0.1616E+00  0.1616E+00
      6.719  0.0000E+00  0.0000E+00  0.1616E+00  0.1616E+00
      6.833  0.0000E+00  0.0000E+00  0.1616E+00  0.1616E+00
      6.946  0.0000E+00  0.0000E+00  0.1616E+00  0.1616E+00
      7.060  0.0000E+00  0.0000E+00  0.1616E+00  0.1616E+00
      7.173  0.0000E+00  0.0000E+00  0.1616E+00  0.1616E+00
      7.287  0.0000E+00  0.0000E+00  0.1616E+00  0.1616E+00
      7.400  0.0000E+00  0.0000E+00  0.1616E+00  0.1616E+00
      7.514  0.1973E-04  0.1973E-04  0.1616E+00  0.1616E+00
      7.628  0.2190E-02  0.2190E-02  0.1617E+00  0.1617E+00
      7.741  0.5905E-02  0.5905E-02  0.1622E+00  0.1622E+00
      7.855  0.8645E-02  0.8645E-02  0.1630E+00  0.1630E+00
      7.968  0.1290E-01  0.1290E-01  0.1642E+00  0.1642E+00
      8.082  0.1608E-01  0.1608E-01  0.1658E+00  0.1658E+00
      8.196  0.1850E-01  0.1850E-01  0.1679E+00  0.1679E+00
      8.309  0.1275E-01  0.1275E-01  0.1696E+00  0.1696E+00
      8.423  0.1287E-01  0.1287E-01  0.1710E+00  0.1710E+00
      8.536  0.1734E-01  0.1734E-01  0.1726E+00  0.1726E+00
      8.650  0.1692E-01  0.1692E-01  0.1748E+00  0.1748E+00
      8.763  0.1538E-01  0.1538E-01  0.1766E+00  0.1766E+00
      8.877  0.1426E-01  0.1426E-01  0.1783E+00  0.1783E+00
      8.991  0.1151E-01  0.1151E-01  0.1797E+00  0.1797E+00
      9.104  0.1059E-01  0.1059E-01  0.1810E+00  0.1810E+00
      9.218  0.8279E-02  0.8279E-02  0.1821E+00  0.1821E+00
      9.331  0.8080E-02  0.8080E-02  0.1830E+00  0.1830E+00
      9.445  0.2760E-01  0.2760E-01  0.1847E+00  0.1847E+00
      9.559  0.2339E-01  0.2339E-01  0.1878E+00  0.1878E+00
      9.672  0.1721E-01  0.1721E-01  0.1900E+00  0.1900E+00
      9.786  0.7480E-02  0.7480E-02  0.1913E+00  0.1913E+00
      9.899  0.2343E-02  0.2343E-02  0.1918E+00  0.1918E+00
     10.013  0.4513E-03  0.4513E-03  0.1919E+00  0.1919E+00
     10.126  0.1049E-01  0.1049E-01  0.1923E+00  0.1923E+00
     10.240  0.2495E-01  0.2494E-01  0.1946E+00  0.1946E+00
     10.354  0.2458E-01  0.2458E-01  0.1974E+00  0.1974E+00
     10.467  0.1413E-01  0.1413E-01  0.1998E+00  0.1998E+00
     10.581  0.7090E-02  0.7090E-02  0.2009E+00  0.2009E+00
     10.694  0.4056E-02  0.4056E-02  0.2016E+00  0.2016E+00
     10.808  0.1770E-02  0.1770E-02  0.2019E+00  0.2019E+00
     10.922  0.3775E-03  0.3774E-03  0.2020E+00  0.2020E+00
     11.035  0.1546E-04  0.1544E-04  0.2020E+00  0.2020E+00
     11.149  0.0000E+00  0.0000E+00  0.2020E+00  0.2020E+00
     11.262  0.0000E+00  0.0000E+00  0.2020E+00  0.2020E+00
     11.376  0.0000E+00  0.0000E+00  0.2020E+00  0.2020E+00
     11.489  0.0000E+00  0.0000E+00  0.2020E+00  0.2020E+00
     11.603  0.0000E+00  0.0000E+00  0.2020E+00  0.2020E+00
     11.717  0.0000E+00  0.0000E+00  0.2020E+00  0.2020E+00
     11.830  0.0000E+00  0.0000E+00  0.2020E+00  0.2020E+00
     11.944  0.0000E+00  0.0000E+00  0.2020E+00  0.2020E+00
     12.057  0.0000E+00  0.0000E+00  0.2020E+00  0.2020E+00
     12.171  0.0000E+00  0.0000E+00  0.2020E+00  0.2020E+00
     12.285  0.0000E+00  0.0000E+00  0.2020E+00  0.2020E+00
     12.398  0.0000E+00  0.0000E+00  0.2020E+00  0.2020E+00
     12.512  0.0000E+00  0.0000E+00  0.2020E+00  0.2020E+00
     12.625  0.0000E+00  0.0000E+00  0.2020E+00  0.2020E+00
     12.62527914    -21.44979212  301      2.43115366      1.00000000
    -21.450  0.0000E+00  0.0000E+00  0.0000E+00  0.0000E+00  0.0000E+00  0.0000E+00  0.0000E+00  0.0000E+00  0.0000E+00  0.0000E+00  0.0000E+00  0.0000E+00  0.0000E+00  0.0000E+00  0.0000E+00  0.0000E+00  0.0000E+00  0.0000E+00
    -21.336  0.0000E+00  0.0000E+00  0.0000E+00  0.0000E+00  0.0000E+00  0.0000E+00  0.0000E+00  0.0000E+00  0.0000E+00  0.0000E+00  0.0000E+00  0.0000E+00  0.0000E+00  0.0000E+00  0.0000E+00  0.0000E+00  0.0000E+00  0.0000E+00
    -21.223  0.0000E+00  0.0000E+00  0.0000E+00  0.0000E+00  0.0000E+00  0.0000E+00  0.0000E+00  0.0000E+00  0.0000E+00  0.0000E+00  0.0000E+00  0.0000E+00  0.0000E+00  0.0000E+00  0.0000E+00  0.0000E+00  0.0000E+00  0.0000E+00
    -21.109  0.0000E+00  0.0000E+00  0.0000E+00  0.0000E+00  0.0000E+00  0.0000E+00  0.0000E+00  0.0000E+00  0.0000E+00  0.0000E+00  0.0000E+00  0.0000E+00  0.0000E+00  0.0000E+00  0.0000E+00  0.0000E+00  0.0000E+00  0.0000E+00
    -20.995  0.0000E+00  0.0000E+00  0.0000E+00  0.0000E+00  0.0000E+00  0.0000E+00  0.0000E+00  0.0000E+00  0.0000E+00  0.0000E+00  0.0000E+00  0.0000E+00  0.0000E+00  0.0000E+00  0.0000E+00  0.0000E+00  0.0000E+00  0.0000E+00
    -20.882  0.0000E+00  0.0000E+00  0.0000E+00  0.0000E+00  0.0000E+00  0.0000E+00  0.0000E+00  0.0000E+00  0.0000E+00  0.0000E+00  0.0000E+00  0.0000E+00  0.0000E+00  0.0000E+00  0.0000E+00  0.0000E+00  0.0000E+00  0.0000E+00
    -20.768  0.0000E+00  0.0000E+00  0.0000E+00  0.0000E+00  0.0000E+00  0.0000E+00  0.0000E+00  0.0000E+00  0.0000E+00  0.0000E+00  0.0000E+00  0.0000E+00  0.0000E+00  0.0000E+00  0.0000E+00  0.0000E+00  0.0000E+00  0.0000E+00
    -20.655  0.0000E+00  0.0000E+00  0.0000E+00  0.0000E+00  0.0000E+00  0.0000E+00  0.0000E+00  0.0000E+00  0.0000E+00  0.0000E+00  0.0000E+00  0.0000E+00  0.0000E+00  0.0000E+00  0.0000E+00  0.0000E+00  0.0000E+00  0.0000E+00
    -20.541  0.0000E+00  0.0000E+00  0.0000E+00  0.0000E+00  0.0000E+00  0.0000E+00  0.0000E+00  0.0000E+00  0.0000E+00  0.0000E+00  0.0000E+00  0.0000E+00  0.0000E+00  0.0000E+00  0.0000E+00  0.0000E+00  0.0000E+00  0.0000E+00
    -20.428  0.0000E+00  0.0000E+00  0.0000E+00  0.0000E+00  0.0000E+00  0.0000E+00  0.0000E+00  0.0000E+00  0.0000E+00  0.0000E+00  0.0000E+00  0.0000E+00  0.0000E+00  0.0000E+00  0.0000E+00  0.0000E+00  0.0000E+00  0.0000E+00
    -20.314  0.0000E+00  0.0000E+00  0.0000E+00  0.0000E+00  0.0000E+00  0.0000E+00  0.0000E+00  0.0000E+00  0.0000E+00  0.0000E+00  0.0000E+00  0.0000E+00  0.0000E+00  0.0000E+00  0.0000E+00  0.0000E+00  0.0000E+00  0.0000E+00
    -20.200  0.0000E+00  0.0000E+00  0.0000E+00  0.0000E+00  0.0000E+00  0.0000E+00  0.0000E+00  0.0000E+00  0.0000E+00  0.0000E+00  0.0000E+00  0.0000E+00  0.0000E+00  0.0000E+00  0.0000E+00  0.0000E+00  0.0000E+00  0.0000E+00
    -20.087  0.0000E+00  0.0000E+00  0.0000E+00  0.0000E+00  0.0000E+00  0.0000E+00  0.0000E+00  0.0000E+00  0.0000E+00  0.0000E+00  0.0000E+00  0.0000E+00  0.0000E+00  0.0000E+00  0.0000E+00  0.0000E+00  0.0000E+00  0.0000E+00
    -19.973  0.0000E+00  0.0000E+00  0.0000E+00  0.0000E+00  0.0000E+00  0.0000E+00  0.0000E+00  0.0000E+00  0.0000E+00  0.0000E+00  0.0000E+00  0.0000E+00  0.0000E+00  0.0000E+00  0.0000E+00  0.0000E+00  0.0000E+00  0.0000E+00
    -19.860  0.3351E-01  0.3351E-01  0.3365E-04  0.3366E-04  0.3583E-02  0.3583E-02  0.9144E-04  0.9145E-04  0.0000E+00  0.0000E+00  0.0000E+00  0.0000E+00  0.0000E+00  0.0000E+00  0.0000E+00  0.0000E+00  0.0000E+00  0.0000E+00
    -19.746  0.1054E+00  0.1054E+00  0.3217E-03  0.3217E-03  0.1373E-01  0.1373E-01  0.7854E-03  0.7854E-03  0.0000E+00  0.0000E+00  0.0000E+00  0.0000E+00  0.0000E+00  0.0000E+00  0.0000E+00  0.0000E+00  0.0000E+00  0.0000E+00
    -19.632  0.1483E+00  0.1483E+00  0.6662E-03  0.6662E-03  0.2322E-01  0.2322E-01  0.2278E-02  0.2278E-02  0.0000E+00  0.0000E+00  0.0000E+00  0.0000E+00  0.0000E+00  0.0000E+00  0.0000E+00  0.0000E+00  0.0000E+00  0.0000E+00
    -19.519  0.1006E+00  0.1006E+00  0.7565E-03  0.7565E-03  0.1553E-01  0.1553E-01  0.3581E-02  0.3581E-02  0.0000E+00  0.0000E+00  0.0000E+00  0.0000E+00  0.0000E+00  0.0000E+00  0.0000E+00  0.0000E+00  0.0000E+00  0.0000E+00
    -19.405  0.7729E-01  0.7729E-01  0.8949E-03  0.8949E-03  0.1148E-01  0.1148E-01  0.4545E-02  0.4545E-02  0.0000E+00  0.0000E+00  0.0000E+00  0.0000E+00  0.0000E+00  0.0000E+00  0.0000E+00  0.0000E+00  0.0000E+00  0.0000E+00
    -19.292  0.6621E-01  0.6621E-01  0.1033E-02  0.1033E-02  0.9411E-02  0.9411E-02  0.5448E-02  0.5448E-02  0.0000E+00  0.0000E+00  0.0000E+00  0.0000E+00  0.0000E+00  0.0000E+00  0.0000E+00  0.0000E+00  0.0000E+00  0.0000E+00
    -19.178  0.6198E-01  0.6198E-01  0.1306E-02  0.1306E-02  0.8259E-02  0.8259E-02  0.6886E-02  0.6886E-02  0.0000E+00  0.0000E+00  0.0000E+00  0.0000E+00  0.0000E+00  0.0000E+00  0.0000E+00  0.0000E+00  0.0000E+00  0.0000E+00
    -19.065  0.8884E-01  0.8884E-01  0.2118E-02  0.2118E-02  0.1126E-01  0.1126E-01  0.1165E-01  0.1165E-01  0.0000E+00  0.0000E+00  0.0000E+00  0.0000E+00  0.0000E+00  0.0000E+00  0.0000E+00  0.0000E+00  0.0000E+00  0.0000E+00
    -18.951  0.6784E-02  0.6783E-02  0.2848E-03  0.2848E-03  0.9122E-03  0.9121E-03  0.1179E-02  0.1179E-02  0.0000E+00  0.0000E+00  0.0000E+00  0.0000E+00  0.0000E+00  0.0000E+00  0.0000E+00  0.0000E+00  0.0000E+00  0.0000E+00
    -18.837  0.5689E-02  0.5690E-02  0.2169E-03  0.2169E-03  0.7893E-03  0.7893E-03  0.1199E-02  0.1199E-02  0.0000E+00  0.0000E+00  0.0000E+00  0.0000E+00  0.0000E+00  0.0000E+00  0.0000E+00  0.0000E+00  0.0000E+00  0.0000E+00
    -18.724  0.6371E-01  0.6371E-01  0.3314E-02  0.3314E-02  0.9092E-02  0.9092E-02  0.1947E-01  0.1947E-01  0.0000E+00  0.0000E+00  0.0000E+00  0.0000E+00  0.0000E+00  0.0000E+00  0.0000E+00  0.0000E+00  0.0000E+00  0.0000E+00
    -18.610  0.3603E-01  0.3603E-01  0.2296E-02  0.2296E-02  0.5121E-02  0.5121E-02  0.1243E-01  0.1243E-01  0.0000E+00  0.0000E+00  0.0000E+00  0.0000E+00  0.0000E+00  0.0000E+00  0.0000E+00  0.0000E+00  0.0000E+00  0.0000E+00
    -18.497  0.2888E-01  0.2888E-01  0.2371E-02  0.2371E-02  0.3824E-02  0.3824E-02  0.1227E-01  0.1227E-01  0.0000E+00  0.0000E+00  0.0000E+00  0.0000E+00  0.0000E+00  0.0000E+00  0.0000E+00  0.0000E+00  0.0000E+00  0.0000E+00
    -18.383  0.2590E-01  0.2590E-01  0.2679E-02  0.2679E-02  0.3277E-02  0.3277E-02  0.1353E-01  0.1353E-01  0.0000E+00  0.0000E+00  0.0000E+00  0.0000E+00  0.0000E+00  0.0000E+00  0.0000E+00  0.0000E+00  0.0000E+00  0.0000E+00
    -18.269  0.2320E-01  0.2320E-01  0.3050E-02  0.3050E-02  0.2822E-02  0.2822E-02  0.1513E-01  0.1513E-01  0.0000E+00  0.0000E+00  0.0000E+00  0.0000E+00  0.0000E+00  0.0000E+00  0.0000E+00  0.0000E+00  0.0000E+00  0.0000E+00
    -18.156  0.2023E-01  0.2023E-01  0.3634E-02  0.3634E-02  0.2364E-02  0.2364E-02  0.1759E-01  0.1759E-01  0.0000E+00  0.0000E+00  0.0000E+00  0.0000E+00  0.0000E+00  0.0000E+00  0.0000E+00  0.0000E+00  0.0000E+00  0.0000E+00
    -18.042  0.1739E-01  0.1739E-01  0.4382E-02  0.4382E-02  0.1969E-02  0.1969E-02  0.2083E-01  0.2083E-01  0.0000E+00  0.0000E+00  0.0000E+00  0.0000E+00  0.0000E+00  0.0000E+00  0.0000E+00  0.0000E+00  0.0000E+00  0.0000E+00
    -17.929  0.1431E-01  0.1431E-01  0.5612E-02  0.5612E-02  0.1568E-02  0.1568E-02  0.2620E-01  0.2620E-01  0.0000E+00  0.0000E+00  0.0000E+00  0.0000E+00  0.0000E+00  0.0000E+00  0.0000E+00  0.0000E+00  0.0000E+00  0.0000E+00
    -17.815  0.1084E-01  0.1084E-01  0.8881E-02  0.8881E-02  0.1158E-02  0.1158E-02  0.4043E-01  0.4043E-01  0.0000E+00  0.0000E+00  0.0000E+00  0.0000E+00  0.0000E+00  0.0000E+00  0.0000E+00  0.0000E+00  0.0000E+00  0.0000E+00
    -17.702  0.1578E-02  0.1577E-02  0.5771E-02  0.5770E-02  0.2630E-03  0.2629E-03  0.2788E-01  0.2788E-01  0.0000E+00  0.0000E+00  0.0000E+00  0.0000E+00  0.0000E+00  0.0000E+00  0.0000E+00  0.0000E+00  0.0000E+00  0.0000E+00
    -17.588  0.0000E+00  0.0000E+00  0.0000E+00  0.0000E+00  0.0000E+00  0.0000E+00  0.0000E+00  0.0000E+00  0.0000E+00  0.0000E+00  0.0000E+00  0.0000E+00  0.0000E+00  0.0000E+00  0.0000E+00  0.0000E+00  0.0000E+00  0.0000E+00
    -17.474  0.0000E+00  0.0000E+00  0.0000E+00  0.0000E+00  0.0000E+00  0.0000E+00  0.0000E+00  0.0000E+00  0.0000E+00  0.0000E+00  0.0000E+00  0.0000E+00  0.0000E+00  0.0000E+00  0.0000E+00  0.0000E+00  0.0000E+00  0.0000E+00
    -17.361  0.0000E+00  0.0000E+00  0.0000E+00  0.0000E+00  0.0000E+00  0.0000E+00  0.0000E+00  0.0000E+00  0.0000E+00  0.0000E+00  0.0000E+00  0.0000E+00  0.0000E+00  0.0000E+00  0.0000E+00  0.0000E+00  0.0000E+00  0.0000E+00
    -17.247  0.0000E+00  0.0000E+00  0.0000E+00  0.0000E+00  0.0000E+00  0.0000E+00  0.0000E+00  0.0000E+00  0.0000E+00  0.0000E+00  0.0000E+00  0.0000E+00  0.0000E+00  0.0000E+00  0.0000E+00  0.0000E+00  0.0000E+00  0.0000E+00
    -17.134  0.0000E+00  0.0000E+00  0.0000E+00  0.0000E+00  0.0000E+00  0.0000E+00  0.0000E+00  0.0000E+00  0.0000E+00  0.0000E+00  0.0000E+00  0.0000E+00  0.0000E+00  0.0000E+00  0.0000E+00  0.0000E+00  0.0000E+00  0.0000E+00
    -17.020  0.0000E+00  0.0000E+00  0.0000E+00  0.0000E+00  0.0000E+00  0.0000E+00  0.0000E+00  0.0000E+00  0.0000E+00  0.0000E+00  0.0000E+00  0.0000E+00  0.0000E+00  0.0000E+00  0.0000E+00  0.0000E+00  0.0000E+00  0.0000E+00
    -16.906  0.0000E+00  0.0000E+00  0.0000E+00  0.0000E+00  0.0000E+00  0.0000E+00  0.0000E+00  0.0000E+00  0.0000E+00  0.0000E+00  0.0000E+00  0.0000E+00  0.0000E+00  0.0000E+00  0.0000E+00  0.0000E+00  0.0000E+00  0.0000E+00
    -16.793  0.0000E+00  0.0000E+00  0.0000E+00  0.0000E+00  0.0000E+00  0.0000E+00  0.0000E+00  0.0000E+00  0.0000E+00  0.0000E+00  0.0000E+00  0.0000E+00  0.0000E+00  0.0000E+00  0.0000E+00  0.0000E+00  0.0000E+00  0.0000E+00
    -16.679  0.0000E+00  0.0000E+00  0.0000E+00  0.0000E+00  0.0000E+00  0.0000E+00  0.0000E+00  0.0000E+00  0.0000E+00  0.0000E+00  0.0000E+00  0.0000E+00  0.0000E+00  0.0000E+00  0.0000E+00  0.0000E+00  0.0000E+00  0.0000E+00
    -16.566  0.0000E+00  0.0000E+00  0.0000E+00  0.0000E+00  0.0000E+00  0.0000E+00  0.0000E+00  0.0000E+00  0.0000E+00  0.0000E+00  0.0000E+00  0.0000E+00  0.0000E+00  0.0000E+00  0.0000E+00  0.0000E+00  0.0000E+00  0.0000E+00
    -16.452  0.0000E+00  0.0000E+00  0.0000E+00  0.0000E+00  0.0000E+00  0.0000E+00  0.0000E+00  0.0000E+00  0.0000E+00  0.0000E+00  0.0000E+00  0.0000E+00  0.0000E+00  0.0000E+00  0.0000E+00  0.0000E+00  0.0000E+00  0.0000E+00
    -16.339  0.0000E+00  0.0000E+00  0.0000E+00  0.0000E+00  0.0000E+00  0.0000E+00  0.0000E+00  0.0000E+00  0.0000E+00  0.0000E+00  0.0000E+00  0.0000E+00  0.0000E+00  0.0000E+00  0.0000E+00  0.0000E+00  0.0000E+00  0.0000E+00
    -16.225  0.0000E+00  0.0000E+00  0.0000E+00  0.0000E+00  0.0000E+00  0.0000E+00  0.0000E+00  0.0000E+00  0.0000E+00  0.0000E+00  0.0000E+00  0.0000E+00  0.0000E+00  0.0000E+00  0.0000E+00  0.0000E+00  0.0000E+00  0.0000E+00
    -16.111  0.0000E+00  0.0000E+00  0.0000E+00  0.0000E+00  0.0000E+00  0.0000E+00  0.0000E+00  0.0000E+00  0.0000E+00  0.0000E+00  0.0000E+00  0.0000E+00  0.0000E+00  0.0000E+00  0.0000E+00  0.0000E+00  0.0000E+00  0.0000E+00
    -15.998  0.0000E+00  0.0000E+00  0.0000E+00  0.0000E+00  0.0000E+00  0.0000E+00  0.0000E+00  0.0000E+00  0.0000E+00  0.0000E+00  0.0000E+00  0.0000E+00  0.0000E+00  0.0000E+00  0.0000E+00  0.0000E+00  0.0000E+00  0.0000E+00
    -15.884  0.0000E+00  0.0000E+00  0.0000E+00  0.0000E+00  0.0000E+00  0.0000E+00  0.0000E+00  0.0000E+00  0.0000E+00  0.0000E+00  0.0000E+00  0.0000E+00  0.0000E+00  0.0000E+00  0.0000E+00  0.0000E+00  0.0000E+00  0.0000E+00
    -15.771  0.0000E+00  0.0000E+00  0.0000E+00  0.0000E+00  0.0000E+00  0.0000E+00  0.0000E+00  0.0000E+00  0.0000E+00  0.0000E+00  0.0000E+00  0.0000E+00  0.0000E+00  0.0000E+00  0.0000E+00  0.0000E+00  0.0000E+00  0.0000E+00