    6    6   99    2
  0.1283026E+02  0.4832806E-09  0.4832806E-09  0.4832806E-09  0.5000000E-15
  1.000000000000000E-004
  CAR 
 unknown system                          
     32    296     20
 
  0.0000000E+00  0.0000000E+00  0.0000000E+00  0.1562500E-02
    1      -19.900924    -19.900925   1.000000   1.000000
    2      -17.671228    -17.671229   1.000000   1.000000
    3      -13.936953    -13.936955   1.000000   1.000000
    4      -12.477081    -12.477083   1.000000   1.000000
    5      -11.527148    -11.527150   1.000000   1.000000
    6       -6.777183     -6.777185   1.000000   1.000000
    7       -5.608101     -5.608103   1.000000   1.000000
    8       -5.567591     -5.567593   1.000000   1.000000
    9       -2.519469     -2.519469   1.000000   1.000000
   10       -1.841866     -1.841866   1.000000   1.000000
   11       -0.769928     -0.769927   1.000000   1.000000
   12       -0.687829     -0.687829   1.000000   1.000000
   13        0.413234      0.413234   1.000000   1.000000
   14        0.584244      0.584244   1.000000   1.000000
   15        1.292331      1.292331   1.000000   1.000000
   16        2.015490      2.015491   1.000000   1.000000
   17        7.483531      7.483530   0.000000   0.000000
   18        7.625711      7.625711   0.000000   0.000000
   19        9.015121      9.015118   0.000000   0.000000
   20       10.443700     10.443698   0.000000   0.000000
 
  0.1250000E+00  0.6938894E-17  0.6938894E-17  0.3125000E-02
    1      -19.876240    -19.876242   1.000000   1.000000
    2      -17.675747    -17.675748   1.000000   1.000000
    3      -14.015519    -14.015521   1.000000   1.000000
    4      -12.818826    -12.818828   1.000000   1.000000
    5      -11.048046    -11.048048   1.000000   1.000000
    6       -6.747147     -6.747149   1.000000   1.000000
    7       -5.641502     -5.641504   1.000000   1.000000
    8       -5.531318     -5.531319   1.000000   1.000000
    9       -2.493086     -2.493086   1.000000   1.000000
   10       -1.867956     -1.867956   1.000000   1.000000
   11       -0.906497     -0.906497   1.000000   1.000000
   12       -0.711058     -0.711058   1.000000   1.000000
   13        0.444399      0.444399   1.000000   1.000000
   14        0.520979      0.520979   1.000000   1.000000
   15        1.247164      1.247164   1.000000   1.000000
   16        2.007740      2.007741   1.000000   1.000000
   17        7.646702      7.646700   0.000000   0.000000
   18        7.795522      7.795521   0.000000   0.000000
   19        8.809738      8.809736   0.000000   0.000000
   20       10.574153     10.574195   0.000000   0.000000
 
  0.2500000E+00  0.1387779E-16  0.1387779E-16  0.3125000E-02
    1      -19.814542    -19.814544   1.000000   1.000000
    2      -17.687267    -17.687268   1.000000   1.000000
    3      -14.245379    -14.245381   1.000000   1.000000
    4      -13.182439    -13.182441   1.000000   1.000000
    5      -10.295470    -10.295472   1.000000   1.000000
    6       -6.671225     -6.671227   1.000000   1.000000
    7       -5.745006     -5.745007   1.000000   1.000000
    8       -5.424147     -5.424149   1.000000   1.000000
    9       -2.423007     -2.423007   1.000000   1.000000
   10       -1.986991     -1.986991   1.000000   1.000000
   11       -1.296374     -1.296374   1.000000   1.000000
   12       -0.633837     -0.633837   1.000000   1.000000
   13        0.387500      0.387500   1.000000   1.000000
   14        0.472289      0.472289   1.000000   1.000000
   15        1.171545      1.171546   1.000000   1.000000
   16        1.953759      1.953760   1.000000   1.000000
   17        7.881035      7.881033   0.000000   0.000000
   18        8.110512      8.110510   0.000000   0.000000
   19        8.886073      8.886073   0.000000   0.000000
   20       10.335758     10.335758   0.000000   0.000000
 
  0.3750000E+00  0.0000000E+00  0.5551115E-16  0.3125000E-02
    1      -19.749273    -19.749275   1.000000   1.000000
    2      -17.699599    -17.699601   1.000000   1.000000
    3      -14.503833    -14.503835   1.000000   1.000000
    4      -13.350058    -13.350059   1.000000   1.000000
    5       -9.678266     -9.678268   1.000000   1.000000
    6       -6.591703     -6.591706   1.000000   1.000000
    7       -5.850878     -5.850880   1.000000   1.000000
    8       -5.322277     -5.322279   1.000000   1.000000
    9       -2.362134     -2.362134   1.000000   1.000000
   10       -2.239215     -2.239215   1.000000   1.000000
   11       -1.539507     -1.539507   1.000000   1.000000
   12       -0.484424     -0.484424   1.000000   1.000000
   13        0.198540      0.198539   1.000000   1.000000
   14        0.397756      0.397757   1.000000   1.000000
   15        1.237980      1.237980   1.000000   1.000000
   16        1.813237      1.813237   1.000000   1.000000
   17        7.905416      7.905414   0.000000   0.000000
   18        8.451777      8.451775   0.000000   0.000000
   19        9.495423      9.495423   0.000000   0.000000
   20       10.028144     10.028145   0.000000   0.000000
 
  0.5000000E+00  0.2775558E-16  0.2775558E-16  0.3125000E-02
    1      -19.721130    -19.721132   1.000000   1.000000
    2      -17.704983    -17.704984   1.000000   1.000000
    3      -14.612199    -14.612201   1.000000   1.000000
    4      -13.395416    -13.395417   1.000000   1.000000
    5       -9.432653     -9.432655   1.000000   1.000000
    6       -6.558632     -6.558634   1.000000   1.000000
    7       -5.895756     -5.895758   1.000000   1.000000
    8       -5.282363     -5.282365   1.000000   1.000000
    9       -2.460167     -2.460167   1.000000   1.000000
   10       -2.262168     -2.262168   1.000000   1.000000
   11       -1.597155     -1.597154   1.000000   1.000000
   12       -0.341428     -0.341427   1.000000   1.000000
   13        0.001234      0.001234   1.000000   1.000000
   14        0.380009      0.380009   1.000000   1.000000
   15        1.338024      1.338025   1.000000   1.000000
   16        1.693786      1.693787   1.000000   1.000000
   17        7.957898      7.957896   0.000000   0.000000
   18        8.589326      8.589324   0.000000   0.000000
   19        9.568901      9.568900   0.000000   0.000000
   20       10.327432     10.327433   0.000000   0.000000
 
 -0.2081668E-16  0.1250000E+00  0.2081668E-16  0.3125000E-02
    1      -19.832665    -19.832666   1.000000   1.000000
    2      -17.774641    -17.774642   1.000000   1.000000
    3      -14.062411    -14.062413   1.000000   1.000000
    4      -12.490949    -12.490951   1.000000   1.000000
    5      -11.273104    -11.273106   1.000000   1.000000
    6       -6.804534     -6.804536   1.000000   1.000000
    7       -5.685160     -5.685162   1.000000   1.000000
    8       -5.425088     -5.425090   1.000000   1.000000
    9       -2.553476     -2.553476   1.000000   1.000000
   10       -1.847852     -1.847851   1.000000   1.000000
   11       -0.867800     -0.867800   1.000000   1.000000
   12       -0.711214     -0.711214   1.000000   1.000000
   13        0.431986      0.431986   1.000000   1.000000
   14        0.525508      0.525509   1.000000   1.000000
   15        1.196743      1.196743   1.000000   1.000000
   16        2.011482      2.011482   1.000000   1.000000
   17        7.720924      7.720922   0.000000   0.000000
   18        7.821780      7.821780   0.000000   0.000000
   19        9.083549      9.083546   0.000000   0.000000
   20       10.236817     10.236818   0.000000   0.000000
 
  0.1250000E+00  0.1250000E+00  0.1387779E-16  0.3125000E-02
    1      -19.789621    -19.789622   1.000000   1.000000
    2      -17.786898    -17.786899   1.000000   1.000000
    3      -14.260706    -14.260708   1.000000   1.000000
    4      -12.745852    -12.745854   1.000000   1.000000
    5      -10.714384    -10.714386   1.000000   1.000000
    6       -6.775827     -6.775829   1.000000   1.000000
    7       -5.696318     -5.696319   1.000000   1.000000
    8       -5.403600     -5.403602   1.000000   1.000000
    9       -2.495217     -2.495217   1.000000   1.000000
   10       -1.935921     -1.935921   1.000000   1.000000
   11       -1.045931     -1.045931   1.000000   1.000000
   12       -0.738020     -0.738020   1.000000   1.000000
   13        0.339663      0.339664   1.000000   1.000000
   14        0.538993      0.538993   1.000000   1.000000
   15        1.099562      1.099562   1.000000   1.000000
   16        2.029314      2.029314   1.000000   1.000000
   17        7.923270      7.923269   0.000000   0.000000
   18        8.054457      8.054456   0.000000   0.000000
   19        9.011479      9.011477   0.000000   0.000000
   20       10.396588     10.396589   0.000000   0.000000
 
  0.2500000E+00  0.1250000E+00  0.2775558E-16  0.3125000E-02
    1      -19.721929    -19.721930   1.000000   1.000000
    2      -17.805710    -17.805711   1.000000   1.000000
    3      -14.474782    -14.474784   1.000000   1.000000
    4      -13.068236    -13.068238   1.000000   1.000000
    5       -9.980289     -9.980291   1.000000   1.000000
    6       -6.766313     -6.766315   1.000000   1.000000
    7       -5.738326     -5.738327   1.000000   1.000000
    8       -5.315599     -5.315601   1.000000   1.000000
    9       -2.425609     -2.425609   1.000000   1.000000
   10       -2.119836     -2.119836   1.000000   1.000000
   11       -1.388505     -1.388504   1.000000   1.000000
   12       -0.641942     -0.641942   1.000000   1.000000
   13        0.292259      0.292259   1.000000   1.000000
   14        0.458685      0.458685   1.000000   1.000000
   15        1.041604      1.041604   1.000000   1.000000
   16        1.992956      1.992957   1.000000   1.000000
   17        8.034005      8.034003   0.000000   0.000000
   18        8.407189      8.407187   0.000000   0.000000
   19        9.202432      9.202432   0.000000   0.000000
   20       10.281359     10.281359   0.000000   0.000000
 
  0.3750000E+00  0.1250000E+00  0.2775558E-16  0.6250000E-02
    1      -19.668786    -19.668788   1.000000   1.000000
    2      -17.820410    -17.820411   1.000000   1.000000
    3      -14.595007    -14.595009   1.000000   1.000000
    4      -13.294192    -13.294194   1.000000   1.000000
    5       -9.437814     -9.437816   1.000000   1.000000
    6       -6.803159     -6.803161   1.000000   1.000000
    7       -5.770535     -5.770536   1.000000   1.000000
    8       -5.224205     -5.224207   1.000000   1.000000
    9       -2.462209     -2.462208   1.000000   1.000000
   10       -2.264829     -2.264829   1.000000   1.000000
   11       -1.584389     -1.584389   1.000000   1.000000
   12       -0.450275     -0.450275   1.000000   1.000000
   13        0.140481      0.140480   1.000000   1.000000
   14        0.368975      0.368975   1.000000   1.000000
   15        1.163312      1.163312   1.000000   1.000000
   16        1.847308      1.847308   1.000000   1.000000
   17        8.068684      8.068682   0.000000   0.000000
   18        8.592382      8.592380   0.000000   0.000000
   19        9.453048      9.453047   0.000000   0.000000
   20       10.295184     10.295184   0.000000   0.000000
 
  0.5000000E+00  0.1250000E+00  0.5551115E-16  0.6250000E-02
    1      -19.664925    -19.664927   1.000000   1.000000
    2      -17.820636    -17.820638   1.000000   1.000000
    3      -14.528268    -14.528270   1.000000   1.000000
    4      -13.431574    -13.431576   1.000000   1.000000
    5       -9.332923     -9.332925   1.000000   1.000000
    6       -6.831377     -6.831379   1.000000   1.000000
    7       -5.771771     -5.771773   1.000000   1.000000
    8       -5.192091     -5.192092   1.000000   1.000000
    9       -2.458753     -2.458753   1.000000   1.000000
   10       -2.310125     -2.310125   1.000000   1.000000
   11       -1.624609     -1.624609   1.000000   1.000000
   12       -0.399568     -0.399567   1.000000   1.000000
   13        0.106564      0.106564   1.000000   1.000000
   14        0.396825      0.396825   1.000000   1.000000
   15        1.349330      1.349330   1.000000   1.000000
   16        1.671647      1.671647   1.000000   1.000000
   17        7.936620      7.936618   0.000000   0.000000
   18        8.580501      8.580499   0.000000   0.000000
   19        9.483970      9.483970   0.000000   0.000000
   20       10.642228     10.642220   0.000000   0.000000
 
 -0.3750000E+00  0.1250000E+00 -0.4163336E-16  0.3125000E-02
    1      -19.713057    -19.713059   1.000000   1.000000
    2      -17.806271    -17.806273   1.000000   1.000000
    3      -14.265475    -14.265477   1.000000   1.000000
    4      -13.480925    -13.480927   1.000000   1.000000
    5       -9.713335     -9.713337   1.000000   1.000000
    6       -6.816793     -6.816795   1.000000   1.000000
    7       -5.744850     -5.744852   1.000000   1.000000
    8       -5.238024     -5.238026   1.000000   1.000000
    9       -2.441752     -2.441752   1.000000   1.000000
   10       -2.152776     -2.152776   1.000000   1.000000
   11       -1.538478     -1.538477   1.000000   1.000000
   12       -0.576147     -0.576147   1.000000   1.000000
   13        0.298104      0.298104   1.000000   1.000000
   14        0.489437      0.489437   1.000000   1.000000
   15        1.327076      1.327076   1.000000   1.000000
   16        1.755735      1.755735   1.000000   1.000000
   17        7.754723      7.754721   0.000000   0.000000
   18        8.365096      8.365094   0.000000   0.000000
   19        9.428731      9.428731   0.000000   0.000000
   20       10.245281     10.245280   0.000000   0.000000
 
 -0.2500000E+00  0.1250000E+00  0.1387779E-16  0.3125000E-02
    1      -19.781093    -19.781094   1.000000   1.000000
    2      -17.787414    -17.787416   1.000000   1.000000
    3      -13.981971    -13.981973   1.000000   1.000000
    4      -13.326112    -13.326114   1.000000   1.000000
    5      -10.365661    -10.365663   1.000000   1.000000
    6       -6.813129     -6.813131   1.000000   1.000000
    7       -5.699095     -5.699097   1.000000   1.000000
    8       -5.332577     -5.332579   1.000000   1.000000
    9       -2.530635     -2.530635   1.000000   1.000000
   10       -1.885252     -1.885251   1.000000   1.000000
   11       -1.254598     -1.254598   1.000000   1.000000
   12       -0.721965     -0.721965   1.000000   1.000000
   13        0.393603      0.393604   1.000000   1.000000
   14        0.573092      0.573092   1.000000   1.000000
   15        1.278815      1.278815   1.000000   1.000000
   16        1.909714      1.909715   1.000000   1.000000
   17        7.786069      7.786067   0.000000   0.000000
   18        8.033966      8.033965   0.000000   0.000000
   19        8.917180      8.917180   0.000000   0.000000
   20       10.420816     10.420815   0.000000   0.000000
 
 -0.1250000E+00  0.1250000E+00  0.1387779E-16  0.3125000E-02
    1      -19.829217    -19.829218   1.000000   1.000000
    2      -17.774846    -17.774847   1.000000   1.000000
    3      -13.945750    -13.945752   1.000000   1.000000
    4      -12.833070    -12.833072   1.000000   1.000000
    5      -11.031387    -11.031389   1.000000   1.000000
    6       -6.818041     -6.818043   1.000000   1.000000
    7       -5.679086     -5.679087   1.000000   1.000000
    8       -5.403213     -5.403214   1.000000   1.000000
    9       -2.569154     -2.569154   1.000000   1.000000
   10       -1.821017     -1.821017   1.000000   1.000000
   11       -0.880625     -0.880625   1.000000   1.000000
   12       -0.797628     -0.797628   1.000000   1.000000
   13        0.461820      0.461820   1.000000   1.000000
   14        0.544800      0.544801   1.000000   1.000000
   15        1.256480      1.256481   1.000000   1.000000
   16        1.982348      1.982349   1.000000   1.000000
   17        7.703608      7.703607   0.000000   0.000000
   18        7.866068      7.866068   0.000000   0.000000
   19        8.857086      8.857085   0.000000   0.000000
   20       10.438770     10.438770   0.000000   0.000000
 
 -0.4163336E-16  0.2500000E+00  0.4163336E-16  0.3125000E-02
    1      -19.633794    -19.633796   1.000000   1.000000
    2      -18.058972    -18.058974   1.000000   1.000000
    3      -14.293279    -14.293281   1.000000   1.000000
    4      -12.527901    -12.527903   1.000000   1.000000
    5      -10.698759    -10.698761   1.000000   1.000000
    6       -6.909302     -6.909305   1.000000   1.000000
    7       -5.671074     -5.671076   1.000000   1.000000
    8       -5.261040     -5.261042   1.000000   1.000000
    9       -2.629779     -2.629780   1.000000   1.000000
   10       -1.879182     -1.879182   1.000000   1.000000
   11       -1.047481     -1.047481   1.000000   1.000000
   12       -0.896177     -0.896177   1.000000   1.000000
   13        0.243406      0.243406   1.000000   1.000000
   14        0.658260      0.658260   1.000000   1.000000
   15        1.069601      1.069601   1.000000   1.000000
   16        1.988808      1.988809   1.000000   1.000000
   17        8.153025      8.153023   0.000000   0.000000
   18        8.267732      8.267732   0.000000   0.000000
   19        9.376948      9.376946   0.000000   0.000000
   20       10.147295     10.147296   0.000000   0.000000
 
  0.1250000E+00  0.2500000E+00  0.5551115E-16  0.3125000E-02
    1      -19.578438    -19.578439   1.000000   1.000000
    2      -18.086984    -18.086985   1.000000   1.000000
    3      -14.459678    -14.459680   1.000000   1.000000
    4      -12.721024    -12.721026   1.000000   1.000000
    5      -10.186869    -10.186870   1.000000   1.000000
    6       -6.951203     -6.951205   1.000000   1.000000
    7       -5.653205     -5.653206   1.000000   1.000000
    8       -5.232816     -5.232818   1.000000   1.000000
    9       -2.573540     -2.573540   1.000000   1.000000
   10       -2.017541     -2.017541   1.000000   1.000000
   11       -1.206476     -1.206476   1.000000   1.000000
   12       -0.919272     -0.919272   1.000000   1.000000
   13        0.198259      0.198259   1.000000   1.000000
   14        0.651923      0.651923   1.000000   1.000000
   15        0.984802      0.984803   1.000000   1.000000
   16        2.023568      2.023568   1.000000   1.000000
   17        8.225739      8.225737   0.000000   0.000000
   18        8.448610      8.448608   0.000000   0.000000
   19        9.525767      9.525766   0.000000   0.000000
   20       10.314635     10.314634   0.000000   0.000000
 
  0.2500000E+00  0.2500000E+00  0.2775558E-16  0.6250000E-02
    1      -19.513694    -19.513696   1.000000   1.000000
    2      -18.117669    -18.117670   1.000000   1.000000
    3      -14.560876    -14.560878   1.000000   1.000000
    4      -13.030778    -13.030780   1.000000   1.000000
    5       -9.522529     -9.522530   1.000000   1.000000
    6       -7.112675     -7.112677   1.000000   1.000000
    7       -5.616339     -5.616341   1.000000   1.000000
    8       -5.154494     -5.154496   1.000000   1.000000
    9       -2.586643     -2.586643   1.000000   1.000000
   10       -2.157250     -2.157250   1.000000   1.000000
   11       -1.485344     -1.485343   1.000000   1.000000
   12       -0.732291     -0.732291   1.000000   1.000000
   13        0.255414      0.255414   1.000000   1.000000
   14        0.467119      0.467119   1.000000   1.000000
   15        0.968374      0.968374   1.000000   1.000000
   16        2.013485      2.013485   1.000000   1.000000
   17        8.198736      8.198734   0.000000   0.000000
   18        8.735598      8.735597   0.000000   0.000000
   19        9.492617      9.492616   0.000000   0.000000
   20       10.413734     10.413732   0.000000   0.000000
 
  0.3750000E+00  0.2500000E+00  0.5551115E-16  0.3125000E-02
    1      -19.479505    -19.479506   1.000000   1.000000
    2      -18.131419    -18.131420   1.000000   1.000000
    3      -14.530479    -14.530481   1.000000   1.000000
    4      -13.307291    -13.307292   1.000000   1.000000
    5       -9.044218     -9.044219   1.000000   1.000000
    6       -7.326273     -7.326275   1.000000   1.000000
    7       -5.570549     -5.570551   1.000000   1.000000
    8       -5.078771     -5.078773   1.000000   1.000000
    9       -2.608074     -2.608074   1.000000   1.000000
   10       -2.251204     -2.251205   1.000000   1.000000
   11       -1.662259     -1.662259   1.000000   1.000000
   12       -0.551551     -0.551551   1.000000   1.000000
   13        0.189697      0.189697   1.000000   1.000000
   14        0.433352      0.433352   1.000000   1.000000
   15        1.108131      1.108131   1.000000   1.000000
   16        1.876424      1.876424   1.000000   1.000000
   17        8.221734      8.221732   0.000000   0.000000
   18        8.659612      8.659611   0.000000   0.000000
   19        9.429550      9.429549   0.000000   0.000000
   20       10.418907     10.418907   0.000000   0.000000
 
  0.5000000E+00  0.2500000E+00  0.5551115E-16  0.6250000E-02
    1      -19.499687    -19.499688   1.000000   1.000000
    2      -18.117633    -18.117635   1.000000   1.000000
    3      -14.325820    -14.325822   1.000000   1.000000
    4      -13.522513    -13.522514   1.000000   1.000000
    5       -9.076049     -9.076051   1.000000   1.000000
    6       -7.349825     -7.349827   1.000000   1.000000
    7       -5.535939     -5.535941   1.000000   1.000000
    8       -5.055859     -5.055861   1.000000   1.000000
    9       -2.483341     -2.483341   1.000000   1.000000
   10       -2.364157     -2.364157   1.000000   1.000000
   11       -1.683758     -1.683758   1.000000   1.000000
   12       -0.629970     -0.629970   1.000000   1.000000
   13        0.238962      0.238962   1.000000   1.000000
   14        0.545439      0.545439   1.000000   1.000000
   15        1.351211      1.351212   1.000000   1.000000
   16        1.687493      1.687494   1.000000   1.000000
   17        7.938345      7.938343   0.000000   0.000000
   18        8.655930      8.655928   0.000000   0.000000
   19        9.393830      9.393829   0.000000   0.000000
   20       10.769282     10.769281   0.000000   0.000000
 
 -0.3750000E+00  0.2500000E+00  0.6938894E-17  0.3125000E-02
    1      -19.559625    -19.559626   1.000000   1.000000
    2      -18.086576    -18.086577   1.000000   1.000000
    3      -13.998164    -13.998166   1.000000   1.000000
    4      -13.633286    -13.633288   1.000000   1.000000
    5       -9.560634     -9.560636   1.000000   1.000000
    6       -7.195607     -7.195609   1.000000   1.000000
    7       -5.533640     -5.533642   1.000000   1.000000
    8       -5.102913     -5.102914   1.000000   1.000000
    9       -2.600129     -2.600129   1.000000   1.000000
   10       -2.054476     -2.054476   1.000000   1.000000
   11       -1.587825     -1.587825   1.000000   1.000000
   12       -0.791983     -0.791982   1.000000   1.000000
   13        0.279749      0.279749   1.000000   1.000000
   14        0.682618      0.682618   1.000000   1.000000
   15        1.366617      1.366617   1.000000   1.000000
   16        1.767437      1.767437   1.000000   1.000000
   17        7.771133      7.771131   0.000000   0.000000
   18        8.425424      8.425423   0.000000   0.000000
   19        9.518894      9.518894   0.000000   0.000000
   20       10.549618     10.549618   0.000000   0.000000
 
 -0.2500000E+00  0.2500000E+00  0.2775558E-16  0.3125000E-02
    1      -19.621088    -19.621090   1.000000   1.000000
    2      -18.058593    -18.058594   1.000000   1.000000
    3      -13.966999    -13.967001   1.000000   1.000000
    4      -13.291625    -13.291627   1.000000   1.000000
    5      -10.169327    -10.169329   1.000000   1.000000
    6       -7.052936     -7.052938   1.000000   1.000000
    7       -5.573540     -5.573542   1.000000   1.000000
    8       -5.184161     -5.184163   1.000000   1.000000
    9       -2.685722     -2.685723   1.000000   1.000000
   10       -1.815978     -1.815977   1.000000   1.000000
   11       -1.307796     -1.307796   1.000000   1.000000
   12       -0.897828     -0.897827   1.000000   1.000000
   13        0.315053      0.315053   1.000000   1.000000
   14        0.685015      0.685015   1.000000   1.000000
   15        1.258899      1.258899   1.000000   1.000000
   16        1.920689      1.920689   1.000000   1.000000
   17        7.895284      7.895282   0.000000   0.000000
   18        8.204985      8.204983   0.000000   0.000000
   19        9.261863      9.261863   0.000000   0.000000
   20       10.516489     10.516487   0.000000   0.000000
 
 -0.1250000E+00  0.2500000E+00  0.3469447E-16  0.3125000E-02
    1      -19.650644    -19.650646   1.000000   1.000000
    2      -18.047851    -18.047853   1.000000   1.000000
    3      -14.117241    -14.117243   1.000000   1.000000
    4      -12.765071    -12.765073   1.000000   1.000000
    5      -10.659417    -10.659419   1.000000   1.000000
    6       -6.954933     -6.954935   1.000000   1.000000
    7       -5.639548     -5.639549   1.000000   1.000000
    8       -5.240879     -5.240881   1.000000   1.000000
    9       -2.684526     -2.684526   1.000000   1.000000
   10       -1.803254     -1.803253   1.000000   1.000000
   11       -1.068081     -1.068081   1.000000   1.000000
   12       -0.885249     -0.885249   1.000000   1.000000
   13        0.355093      0.355094   1.000000   1.000000
   14        0.620195      0.620195   1.000000   1.000000
   15        1.137868      1.137868   1.000000   1.000000
   16        1.974422      1.974423   1.000000   1.000000
   17        8.026632      8.026630   0.000000   0.000000
   18        8.204454      8.204453   0.000000   0.000000
   19        9.185733      9.185732   0.000000   0.000000
   20       10.226017     10.226018   0.000000   0.000000
 
 -0.2775558E-16  0.3750000E+00  0.2775558E-16  0.3125000E-02
    1      -19.325171    -19.325173   1.000000   1.000000
    2      -18.452987    -18.452989   1.000000   1.000000
    3      -14.465042    -14.465044   1.000000   1.000000
    4      -12.565938    -12.565939   1.000000   1.000000
    5      -10.122904    -10.122905   1.000000   1.000000
    6       -7.079503     -7.079504   1.000000   1.000000
    7       -5.545080     -5.545081   1.000000   1.000000
    8       -5.195663     -5.195665   1.000000   1.000000
    9       -2.723998     -2.723998   1.000000   1.000000
   10       -1.898803     -1.898803   1.000000   1.000000
   11       -1.250824     -1.250824   1.000000   1.000000
   12       -1.103932     -1.103932   1.000000   1.000000
   13        0.089278      0.089279   1.000000   1.000000
   14        0.806697      0.806698   1.000000   1.000000
   15        0.991199      0.991199   1.000000   1.000000
   16        1.961236      1.961237   1.000000   1.000000
   17        8.503621      8.503619   0.000000   0.000000
   18        8.722795      8.722794   0.000000   0.000000
   19        9.764599      9.764598   0.000000   0.000000
   20       10.156635     10.156634   0.000000   0.000000
 
  0.1250000E+00  0.3750000E+00  0.8326673E-16  0.6250000E-02
    1      -19.266337    -19.266339   1.000000   1.000000
    2      -18.495781    -18.495782   1.000000   1.000000
    3      -14.534364    -14.534365   1.000000   1.000000
    4      -12.726828    -12.726830   1.000000   1.000000
    5       -9.736145     -9.736147   1.000000   1.000000
    6       -7.195122     -7.195124   1.000000   1.000000
    7       -5.499922     -5.499924   1.000000   1.000000
    8       -5.176560     -5.176562   1.000000   1.000000
    9       -2.729475     -2.729475   1.000000   1.000000
   10       -1.960596     -1.960596   1.000000   1.000000
   11       -1.406940     -1.406940   1.000000   1.000000
   12       -1.037720     -1.037720   1.000000   1.000000
   13        0.120328      0.120328   1.000000   1.000000
   14        0.730368      0.730368   1.000000   1.000000
   15        0.943849      0.943849   1.000000   1.000000
   16        2.007675      2.007676   1.000000   1.000000
   17        8.421810      8.421808   0.000000   0.000000
   18        8.967352      8.967351   0.000000   0.000000
   19        9.681371      9.681369   0.000000   0.000000
   20       10.211351     10.211349   0.000000   0.000000
 
  0.2500000E+00  0.3750000E+00  0.5551115E-16  0.3125000E-02
    1      -19.210922    -19.210924   1.000000   1.000000
    2      -18.531551    -18.531553   1.000000   1.000000
    3      -14.512263    -14.512264   1.000000   1.000000
    4      -13.039194    -13.039196   1.000000   1.000000
    5       -9.163839     -9.163841   1.000000   1.000000
    6       -7.496925     -7.496927   1.000000   1.000000
    7       -5.421632     -5.421634   1.000000   1.000000
    8       -5.103635     -5.103637   1.000000   1.000000
    9       -2.766439     -2.766439   1.000000   1.000000
   10       -2.047114     -2.047114   1.000000   1.000000
   11       -1.591774     -1.591774   1.000000   1.000000
   12       -0.859620     -0.859620   1.000000   1.000000
   13        0.239735      0.239735   1.000000   1.000000
   14        0.543892      0.543892   1.000000   1.000000
   15        0.956364      0.956364   1.000000   1.000000
   16        2.025274      2.025275   1.000000   1.000000
   17        8.308804      8.308802   0.000000   0.000000
   18        9.060507      9.060506   0.000000   0.000000
   19        9.497808      9.497807   0.000000   0.000000
   20       10.127396     10.127395   0.000000   0.000000
 
  0.3750000E+00  0.3750000E+00  0.5551115E-16  0.3125000E-02
    1      -19.197516    -19.197518   1.000000   1.000000
    2      -18.534095    -18.534096   1.000000   1.000000
    3      -14.369411    -14.369413   1.000000   1.000000
    4      -13.362097    -13.362099   1.000000   1.000000
    5       -8.671342     -8.671344   1.000000   1.000000
    6       -7.871629     -7.871631   1.000000   1.000000