       N       E                     dE             d eps       ncg     rms          rms(c)
DAV:   1     0.200682263408E+03    0.20068E+03   -0.16946E+04 23680   0.147E+03
DAV:   2    -0.386210000231E+02   -0.23930E+03   -0.23314E+03 33416   0.326E+02
DAV:   3    -0.506638032956E+02   -0.12043E+02   -0.11997E+02 28404   0.835E+01
DAV:   4    -0.508394147064E+02   -0.17561E+00   -0.17517E+00 30144   0.106E+01
DAV:   5    -0.508429594280E+02   -0.35447E-02   -0.35433E-02 27720   0.146E+00    0.269E+01
RMM:   6    -0.441989975454E+02    0.66440E+01   -0.25439E+01 23680   0.296E+01    0.111E+01
RMM:   7    -0.442150260311E+02   -0.16028E-01   -0.25519E+00 23843   0.876E+00    0.488E+00
RMM:   8    -0.441937669681E+02    0.21259E-01   -0.28368E-01 23680   0.380E+00    0.704E-01
RMM:   9    -0.441831560255E+02    0.10611E-01   -0.25872E-02 23715   0.957E-01    0.313E-01
RMM:  10    -0.441859393908E+02   -0.27834E-02   -0.41097E-02 23680   0.106E+00    0.330E-01
RMM:  11    -0.441836990904E+02    0.22403E-02   -0.47165E-03 23680   0.429E-01    0.784E-02
RMM:  12    -0.441837618612E+02   -0.62771E-04   -0.15329E-03 23683   0.214E-01    0.484E-02
RMM:  13    -0.441837208085E+02    0.41053E-04   -0.45968E-05 18647   0.495E-02    0.302E-02
RMM:  14    -0.441837069283E+02    0.13880E-04   -0.90353E-05 20945   0.514E-02    0.339E-03
RMM:  15    -0.441837079845E+02   -0.10562E-05   -0.16840E-06 13844   0.107E-02
   1 F= -.44183708E+02 E0= -.44183708E+02  d E =-.441837E+02  mag=    -0.0000
       N       E                     dE             d eps       ncg     rms          rms(c)
DAV:   1    -0.441856921325E+02   -0.19852E-02   -0.12707E-01 28388   0.305E+00    0.365E-01
RMM:   2    -0.441840710492E+02    0.16211E-02   -0.56063E-03 23680   0.572E-01    0.138E-01
RMM:   3    -0.441838534113E+02    0.21764E-03   -0.12600E-03 23680   0.227E-01    0.379E-02
RMM:   4    -0.441838175520E+02    0.35859E-04   -0.17512E-04 23683   0.849E-02    0.235E-02
RMM:   5    -0.441838120639E+02    0.54881E-05   -0.12031E-05 14208   0.252E-02
   2 F= -.44183812E+02 E0= -.44183812E+02  d E =-.104079E-03  mag=    -0.0000
       N       E                     dE             d eps       ncg     rms          rms(c)
DAV:   1    -0.441846107137E+02   -0.79316E-03   -0.29960E-02 28036   0.148E+00    0.184E-01
RMM:   2    -0.441841814526E+02    0.42926E-03   -0.14697E-03 23680   0.293E-01    0.656E-02
RMM:   3    -0.441841364551E+02    0.44998E-04   -0.29702E-04 23680   0.110E-01    0.188E-02
RMM:   4    -0.441841287168E+02    0.77383E-05   -0.46525E-05 19237   0.444E-02
   3 F= -.44184129E+02 E0= -.44184129E+02  d E =-.420732E-03  mag=     0.0000
       N       E                     dE             d eps       ncg     rms          rms(c)
DAV:   1    -0.441852653525E+02   -0.11289E-02   -0.18007E-01 24400   0.332E+00    0.188E-01
RMM:   2    -0.441849284629E+02    0.33689E-03   -0.35743E-03 23680   0.446E-01    0.731E-02
RMM:   3    -0.441848182589E+02    0.11020E-03   -0.45241E-04 23688   0.136E-01    0.293E-02
RMM:   4    -0.441848038886E+02    0.14370E-04   -0.54197E-05 20012   0.450E-02    0.130E-02
RMM:   5    -0.441848036814E+02    0.20726E-06   -0.63602E-06 14197   0.176E-02
   4 F= -.44184804E+02 E0= -.44184804E+02  d E =-.674965E-03  mag=    -0.0000
       N       E                     dE             d eps       ncg     rms          rms(c)
DAV:   1    -0.441862569356E+02   -0.14530E-02   -0.45310E-01 23784   0.526E+00    0.296E-01
RMM:   2    -0.441854043607E+02    0.85257E-03   -0.90957E-03 23680   0.711E-01    0.115E-01
RMM:   3    -0.441851295179E+02    0.27484E-03   -0.11390E-03 23690   0.215E-01    0.476E-02
RMM:   4    -0.441850934491E+02    0.36069E-04   -0.14161E-04 23654   0.717E-02    0.233E-02
RMM:   5    -0.441850930710E+02    0.37808E-06   -0.14201E-05 14553   0.237E-02
   5 F= -.44185093E+02 E0= -.44185093E+02  d E =-.964354E-03  mag=     0.0000
       N       E                     dE             d eps       ncg     rms          rms(c)
DAV:   1    -0.441856057087E+02   -0.51226E-03   -0.32004E-01 24312   0.463E+00    0.226E-01
RMM:   2    -0.441854563329E+02    0.14938E-03   -0.76835E-03 23680   0.659E-01    0.816E-02
RMM:   3    -0.441853344642E+02    0.12187E-03   -0.60685E-04 23681   0.167E-01    0.342E-02
RMM:   4    -0.441853110960E+02    0.23368E-04   -0.81534E-05 22176   0.564E-02    0.172E-02
RMM:   5    -0.441853101896E+02    0.90640E-06   -0.98121E-06 14204   0.213E-02
   6 F= -.44185310E+02 E0= -.44185310E+02  d E =-.217119E-03  mag=    -0.0000
       N       E                     dE             d eps       ncg     rms          rms(c)
DAV:   1    -0.441853118735E+02   -0.77746E-06   -0.38374E-04 28240   0.161E-01    0.113E-02
RMM:   2    -0.441853108462E+02    0.10273E-05   -0.85742E-06 12855   0.234E-02
   7 F= -.44185311E+02 E0= -.44185311E+02  d E =-.217775E-03  mag=    -0.0000
       N       E                     dE             d eps       ncg     rms          rms(c)
DAV:   1    -0.441856124923E+02   -0.30062E-03   -0.31042E-01 23728   0.450E+00    0.180E-01
RMM:   2    -0.441856891482E+02   -0.76656E-04   -0.75439E-03 23680   0.638E-01    0.668E-02
RMM:   3    -0.441856096934E+02    0.79455E-04   -0.35740E-04 23700   0.129E-01    0.350E-02
RMM:   4    -0.441855879237E+02    0.21770E-04   -0.96240E-05 22403   0.614E-02    0.137E-02
RMM:   5    -0.441855878750E+02    0.48669E-07   -0.63350E-06 14202   0.173E-02
   8 F= -.44185588E+02 E0= -.44185588E+02  d E =-.277029E-03  mag=     0.0000
       N       E                     dE             d eps       ncg     rms          rms(c)
DAV:   1    -0.441855884399E+02   -0.51623E-06   -0.23573E-04 28252   0.124E-01    0.743E-03
RMM:   2    -0.441855880109E+02    0.42900E-06   -0.50893E-06 12629   0.175E-02
   9 F= -.44185588E+02 E0= -.44185588E+02  d E =-.277165E-03  mag=     0.0000
       N       E                     dE             d eps       ncg     rms          rms(c)
DAV:   1    -0.441862526966E+02   -0.66426E-03   -0.18872E-01 23680   0.351E+00    0.231E-01
RMM:   2    -0.441858618880E+02    0.39081E-03   -0.50482E-03 23680   0.521E-01    0.894E-02
RMM:   3    -0.441857459584E+02    0.11593E-03   -0.52546E-04 23682   0.150E-01    0.311E-02
RMM:   4    -0.441857242569E+02    0.21701E-04   -0.70005E-05 20984   0.548E-02    0.127E-02
RMM:   5    -0.441857226965E+02    0.15604E-05   -0.72445E-06 14164   0.194E-02
  10 F= -.44185723E+02 E0= -.44185723E+02  d E =-.134686E-03  mag=    -0.0000
       N       E                     dE             d eps       ncg     rms          rms(c)
DAV:   1    -0.441857551711E+02   -0.30914E-04   -0.60891E-03 25152   0.632E-01    0.445E-02
RMM:   2    -0.441857388384E+02    0.16333E-04   -0.16766E-04 23108   0.950E-02    0.170E-02
RMM:   3    -0.441857349832E+02    0.38552E-05   -0.16296E-05 12968   0.284E-02
  11 F= -.44185735E+02 E0= -.44185735E+02  d E =-.146972E-03  mag=     0.0000
       N       E                     dE             d eps       ncg     rms          rms(c)
DAV:   1    -0.441859198265E+02   -0.18099E-03   -0.46319E-02 23680   0.176E+00    0.980E-02
RMM:   2    -0.441858778023E+02    0.42024E-04   -0.96017E-04 23680   0.239E-01    0.485E-02
RMM:   3    -0.441858403764E+02    0.37426E-04   -0.78413E-05 22623   0.620E-02    0.177E-02
RMM:   4    -0.441858363690E+02    0.40074E-05   -0.14367E-05 14202   0.272E-02
  12 F= -.44185836E+02 E0= -.44185836E+02  d E =-.101386E-03  mag=     0.0000
       N       E                     dE             d eps       ncg     rms          rms(c)
DAV:   1    -0.441858651705E+02   -0.24794E-04   -0.98330E-03 26136   0.810E-01    0.451E-02
RMM:   2    -0.441858566834E+02    0.84871E-05   -0.20902E-04 23680   0.111E-01    0.225E-02
RMM:   3    -0.441858489019E+02    0.77815E-05   -0.15098E-05 13893   0.290E-02
  13 F= -.44185849E+02 E0= -.44185849E+02  d E =-.113919E-03  mag=    -0.0000
       N       E                     dE             d eps       ncg     rms          rms(c)
DAV:   1    -0.441859786921E+02   -0.12201E-03   -0.31475E-02 23688   0.143E+00    0.915E-02
RMM:   2    -0.441859267246E+02    0.51968E-04   -0.53855E-04 23680   0.175E-01    0.474E-02
RMM:   3    -0.441858933798E+02    0.33345E-04   -0.10291E-04 23812   0.694E-02    0.142E-02
RMM:   4    -0.441858913835E+02    0.19963E-05   -0.72063E-06 14200   0.188E-02
  14 F= -.44185891E+02 E0= -.44185891E+02  d E =-.424816E-04  mag=    -0.0000
       N       E                     dE             d eps       ncg     rms          rms(c)
DAV:   1    -0.441859045103E+02   -0.11130E-04   -0.20382E-03 24976   0.366E-01    0.243E-02
RMM:   2    -0.441859008324E+02    0.36778E-05   -0.29209E-05 15063   0.425E-02
  15 F= -.44185901E+02 E0= -.44185901E+02  d E =-.519305E-04  mag=    -0.0000
