unknown system                          
           1
    -2.262065    2.415772    3.521807
     2.262065   -2.415772    3.521807
     2.262065    2.415772   -3.521807
   P    N    O 
   2   2   2
Direct configuration=     1
   0.88951700  0.13951700  0.75000000
   0.61048300  0.36048300  0.25000000
   0.25000000  0.10923100  0.85923100
   0.75000000  0.39076900  0.64076900
   0.62700000  0.75000000  0.37700000
   0.87300000  0.25000000  0.12300000
unknown system                          
           1
    -2.262474    2.419941    3.529114
     2.262474   -2.419941    3.529114
     2.262474    2.419941   -3.529114
   P    N    O 
   2   2   2
Direct configuration=     2
   0.88904765  0.13904765  0.75000000
   0.61095235  0.36095235  0.25000000
   0.25000000  0.10974713  0.85974713
   0.75000000  0.39025287  0.64025287
   0.62716091  0.75000000  0.37716091
   0.87283909  0.25000000  0.12283909
unknown system                          
           1
    -2.262279    2.417952    3.525628
     2.262279   -2.417952    3.525628
     2.262279    2.417952   -3.525628
   P    N    O 
   2   2   2
Direct configuration=     3
   0.88927111  0.13927111  0.75000000
   0.61072889  0.36072889  0.25000000
   0.25000000  0.10950093  0.85950093
   0.75000000  0.39049907  0.64049907
   0.62708427  0.75000000  0.37708427
   0.87291573  0.25000000  0.12291573
unknown system                          
           1
    -2.262110    2.418222    3.531104
     2.262110   -2.418222    3.531104
     2.262110    2.418222   -3.531104
   P    N    O 
   2   2   2
Direct configuration=     4
   0.88928214  0.13928214  0.75000000
   0.61071786  0.36071786  0.25000000
   0.25000000  0.11039597  0.86039597
   0.75000000  0.38960403  0.63960403
   0.62736474  0.75000000  0.37736474
   0.87263526  0.25000000  0.12263526
unknown system                          
           1
    -2.261842    2.418651    3.539800
     2.261842   -2.418651    3.539800
     2.261842    2.418651   -3.539800
   P    N    O 
   2   2   2
Direct configuration=     5
   0.88929964  0.13929964  0.75000000
   0.61070036  0.36070036  0.25000000
   0.25000000  0.11181731  0.86181731
   0.75000000  0.38818269  0.63818269
   0.62781005  0.75000000  0.37781005
   0.87218995  0.25000000  0.12218995
unknown system                          
           1
    -2.262102    2.420583    3.543326
     2.262102   -2.420583    3.543326
     2.262102    2.420583   -3.543326
   P    N    O 
   2   2   2
Direct configuration=     6
   0.88913562  0.13913562  0.75000000
   0.61086438  0.36086438  0.25000000
   0.25000000  0.11251643  0.86251643
   0.75000000  0.38748357  0.63748357
   0.62869577  0.75000000  0.37869577
   0.87130423  0.25000000  0.12130423
unknown system                          
           1
    -2.262093    2.420517    3.543205
     2.262093   -2.420517    3.543205
     2.262093    2.420517   -3.543205
   P    N    O 
   2   2   2
Direct configuration=     7
   0.88914127  0.13914127  0.75000000
   0.61085873  0.36085873  0.25000000
   0.25000000  0.11249235  0.86249235
   0.75000000  0.38750765  0.63750765
   0.62866529  0.75000000  0.37866529
   0.87133471  0.25000000  0.12133471
unknown system                          
           1
    -2.263931    2.421805    3.542938
     2.263931   -2.421805    3.542938
     2.263931    2.421805   -3.542938
   P    N    O 
   2   2   2
Direct configuration=     8
   0.88938189  0.13938189  0.75000000
   0.61061811  0.36061811  0.25000000
   0.25000000  0.11290716  0.86290716
   0.75000000  0.38709284  0.63709284
   0.62966383  0.75000000  0.37966383
   0.87033617  0.25000000  0.12033617
unknown system                          
           1
    -2.263880    2.421769    3.542945
     2.263880   -2.421769    3.542945
     2.263880    2.421769   -3.542945
   P    N    O 
   2   2   2
Direct configuration=     9
   0.88937522  0.13937522  0.75000000
   0.61062478  0.36062478  0.25000000
   0.25000000  0.11289568  0.86289568
   0.75000000  0.38710432  0.63710432
   0.62963618  0.75000000  0.37963618
   0.87036382  0.25000000  0.12036382
unknown system                          
           1
    -2.266324    2.425509    3.540885
     2.266324   -2.425509    3.540885
     2.266324    2.425509   -3.540885
   P    N    O 
   2   2   2
Direct configuration=    10
   0.88934473  0.13934473  0.75000000
   0.61065527  0.36065527  0.25000000
   0.25000000  0.11302362  0.86302362
   0.75000000  0.38697638  0.63697638
   0.63036547  0.75000000  0.38036547
   0.86963453  0.25000000  0.11963453
unknown system                          
           1
    -2.265886    2.424839    3.541254
     2.265886   -2.424839    3.541254
     2.265886    2.424839   -3.541254
   P    N    O 
   2   2   2
Direct configuration=    11
   0.88935019  0.13935019  0.75000000
   0.61064981  0.36064981  0.25000000
   0.25000000  0.11300074  0.86300074
   0.75000000  0.38699926  0.63699926
   0.63023508  0.75000000  0.38023508
   0.86976492  0.25000000  0.11976492
unknown system                          
           1
    -2.267605    2.426524    3.537610
     2.267605   -2.426524    3.537610
     2.267605    2.426524   -3.537610
   P    N    O 
   2   2   2
Direct configuration=    12
   0.88943605  0.13943605  0.75000000
   0.61056395  0.36056395  0.25000000
   0.25000000  0.11326453  0.86326453
   0.75000000  0.38673547  0.63673547
   0.63048163  0.75000000  0.38048163
   0.86951837  0.25000000  0.11951837
unknown system                          
           1
    -2.268398    2.427302    3.535927
     2.268398   -2.427302    3.535927
     2.268398    2.427302   -3.535927
   P    N    O 
   2   2   2
Direct configuration=    13
   0.88947572  0.13947572  0.75000000
   0.61052428  0.36052428  0.25000000
   0.25000000  0.11338622  0.86338622
   0.75000000  0.38661378  0.63661378
   0.63059537  0.75000000  0.38059537
   0.86940463  0.25000000  0.11940463
unknown system                          
           1
    -2.269805    2.429277    3.532779
     2.269805   -2.429277    3.532779
     2.269805    2.429277   -3.532779
   P    N    O 
   2   2   2
Direct configuration=    14
   0.88936145  0.13936145  0.75000000
   0.61063855  0.36063855  0.25000000
   0.25000000  0.11371027  0.86371027
   0.75000000  0.38628973  0.63628973
   0.63056205  0.75000000  0.38056205
   0.86943795  0.25000000  0.11943795
unknown system                          
           1
    -2.269448    2.428777    3.533577
     2.269448   -2.428777    3.533577
     2.269448    2.428777   -3.533577
   P    N    O 
   2   2   2
Direct configuration=    15
   0.88939043  0.13939043  0.75000000
   0.61060957  0.36060957  0.25000000
   0.25000000  0.11362821  0.86362821
   0.75000000  0.38637179  0.63637179
   0.63057049  0.75000000  0.38057049
   0.86942951  0.25000000  0.11942951
