 running on   24 total cores
 distrk:  each k-point on   24 cores,    1 groups
 distr:  one band on    6 cores,    4 groups
 using from now: INCAR     
 vasp.6.1.2 22Jul20 (build Mar 31 2021 18:09:49) complex                        
  
 POSCAR found type information on POSCAR LiO 
 POSCAR found :  2 types and       3 ions
 scaLAPACK will be used
 -----------------------------------------------------------------------------
|                                                                             |
|               ----> ADVICE to this user running VASP <----                  |
|                                                                             |
|     You have a (more or less) 'small supercell' and for smaller cells       |
|     it is recommended to use the reciprocal-space projection scheme!        |
|     The real-space optimization is not efficient for small cells and it     |
|     is also less accurate ...                                               |
|     Therefore, set LREAL=.FALSE. in the INCAR file.                         |
|                                                                             |
 -----------------------------------------------------------------------------

 LDA part: xc-table for Pade appr. of Perdew
 generate k-points for:   12   12   12
 POSCAR, INCAR and KPOINTS ok, starting setup
 FFT: planning ...
 WAVECAR not read
 entering main loop
       N       E                     dE             d eps       ncg     rms          rms(c)
DAV:   1     0.442482611323E+02    0.44248E+02   -0.56426E+03 22952   0.103E+03
DAV:   2    -0.969873605164E+01   -0.53947E+02   -0.51969E+02 27480   0.226E+02
DAV:   3    -0.152747903366E+02   -0.55761E+01   -0.55337E+01 43088   0.532E+01
DAV:   4    -0.153244126712E+02   -0.49622E-01   -0.49616E-01 26396   0.648E+00
DAV:   5    -0.153248139482E+02   -0.40128E-03   -0.40127E-03 31648   0.449E-01    0.116E+01
RMM:   6    -0.142163733098E+02    0.11084E+01   -0.35240E+00 24917   0.124E+01    0.500E+00
RMM:   7    -0.143224831203E+02   -0.10611E+00   -0.12364E-01 27908   0.287E+00    0.207E+00
RMM:   8    -0.143259856333E+02   -0.35025E-02   -0.49900E-02 31461   0.221E+00    0.116E+00
RMM:   9    -0.143389083727E+02   -0.12923E-01   -0.30600E-02 31836   0.196E+00    0.249E-01
RMM:  10    -0.143398733445E+02   -0.96497E-03   -0.85482E-03 36714   0.696E-01    0.144E-01
RMM:  11    -0.143409612748E+02   -0.10879E-02   -0.60690E-03 34801   0.603E-01    0.191E-01
RMM:  12    -0.143406552508E+02    0.30602E-03   -0.15536E-03 35768   0.322E-01    0.831E-02
RMM:  13    -0.143406411770E+02    0.14074E-04   -0.78441E-04 36096   0.225E-01    0.203E-02
RMM:  14    -0.143406744671E+02   -0.33290E-04   -0.25045E-04 34847   0.114E-01    0.289E-02
RMM:  15    -0.143406876098E+02   -0.13143E-04   -0.97475E-05 32041   0.743E-02    0.287E-02
WARNING in EDDRMM: call to ZHEGV failed, returncode =   6  3      3
RMM:  16    -0.143406896647E+02   -0.20549E-05   -0.46990E-05 29041   0.537E-02
   1 F= -.14340690E+02 E0= -.14340690E+02  d E =0.000000E+00  mag=    -0.0000
